 Gaussian 16, Revision C.01,
 Gaussian 16:  ES64L-G16RevC.01  3-Jul-2019

 ----------------------------------------------------------------------
 # CAM-B3LYP/6-311G(d,p) td(nstates=20, singlets) scrf=(solvent=acetoni
 trile) EmpiricalDispersion=GD3BJ
 ----------------------------------------------------------------------

 -
 -
 -
 Symbolic Z-matrix:
 Charge =  0 Multiplicity = 1

                         Standard orientation:
 ---------------------------------------------------------------------
 Center     Atomic      Atomic             Coordinates (Angstroms)
 Number     Number       Type             X           Y           Z
 ---------------------------------------------------------------------
      1          6           0        1.174939    0.342438   -0.556287
      2          6           0        2.241349    1.131114   -0.073568
      3          6           0        2.275244    2.515478   -0.201214
      4          6           0        1.216769    3.125369   -0.848680
      5          6           0        0.161099    2.364452   -1.363987
      6          6           0        0.131910    0.988366   -1.229285
      7          6           0        1.539030   -1.030208   -0.253176
      8          1           0        3.105930    3.094651    0.181300
      9          1           0        1.210653    4.201884   -0.966985
     10          1           0       -0.651435    2.862766   -1.878666
     11          1           0       -0.694397    0.429842   -1.642407
     12          6           0        4.425177    0.765006    1.089479
     13          1           0        5.092338    1.181701    0.332661
     14          1           0        4.207990    1.531801    1.833492
     15          1           0        4.926396   -0.062199    1.583382
     16          6           0        2.792087   -0.996209    0.343022
     17          6           0        3.611773   -2.148018    0.797022
     18          1           0        3.671889   -2.192094    1.887463
     19          1           0        3.149359   -3.066331    0.443098
     20          1           0        4.629889   -2.086931    0.407724
     21          7           0        1.000725   -2.288888   -0.536219
     22          7           0       -0.207776   -2.567040   -0.677994
     23          6           0       -1.258469   -1.658682   -0.365639
     24          6           0       -2.341309   -1.598634   -1.242444
     25          6           0       -1.321364   -0.963721    0.834897
     26          6           0       -3.427497   -0.796704   -0.960436
     27          1           0       -2.307327   -2.179004   -2.156330
     28          6           0       -2.425025   -0.180592    1.142864
     29          1           0       -0.504934   -1.031178    1.541853
     30          6           0       -3.475740   -0.077228    0.235337
     31          1           0       -4.262940   -0.721339   -1.644694
     32          1           0       -2.448728    0.346918    2.085339
     33          8           0       -4.584802    0.676820    0.430032
     34          6           0       -4.681400    1.432203    1.627779
     35          1           0       -3.864144    2.153941    1.707449
     36          1           0       -5.628006    1.963434    1.571343
     37          1           0       -4.682103    0.782896    2.507308
     38          7           0        3.192272    0.297086    0.487399
 ---------------------------------------------------------------------

 SCF Done:  E(RCAM-B3LYP) =  -897.257144515     A.U. after   15 cycles

 Excitation energies and oscillator strengths:

 Excited State   1:      Singlet-A      2.8031 eV  442.31 nm  f=0.0897  <S**2>=0.000
      71 -> 75        -0.34924
      73 -> 75        -0.15544
      74 -> 75         0.56994
 This state for optimization and/or second-order correction.
 Total Energy, E(TD-HF/TD-DFT) =  -897.154132738
 Copying the excited state density for this state as the 1-particle RhoCI density.

 Excited State   2:      Singlet-A      4.1174 eV  301.12 nm  f=0.3374  <S**2>=0.000
      69 -> 75        -0.11624
      71 -> 75         0.42760
      72 -> 75        -0.16760
      73 -> 75         0.29700
      74 -> 75         0.39233

 Excited State   3:      Singlet-A      4.5127 eV  274.74 nm  f=0.0602  <S**2>=0.000
      68 -> 75        -0.13098
      71 -> 75        -0.28986
      72 -> 75         0.13108
      72 -> 76        -0.10273
      73 -> 75         0.55377
      74 -> 76         0.16547

 Excited State   4:      Singlet-A      4.6442 eV  266.96 nm  f=0.0474  <S**2>=0.000
      70 -> 75         0.10408
      71 -> 75         0.19637
      72 -> 75         0.31272
      73 -> 75        -0.14131
      74 -> 76         0.53539

 Excited State   5:      Singlet-A      4.7380 eV  261.68 nm  f=0.0273  <S**2>=0.000
      70 -> 75         0.19915
      72 -> 75        -0.13167
      73 -> 76        -0.15019
      73 -> 77        -0.20373
      74 -> 77         0.57310

 Excited State   6:      Singlet-A      4.9853 eV  248.70 nm  f=0.2000  <S**2>=0.000
      71 -> 75         0.14013
      72 -> 75         0.52959
      74 -> 76        -0.36093
      74 -> 77         0.11066

 Excited State   7:      Singlet-A      5.1510 eV  240.70 nm  f=0.0515  <S**2>=0.000
      69 -> 75        -0.11879
      72 -> 75         0.14294
      72 -> 76         0.46852
      72 -> 77        -0.10863
      73 -> 76         0.20136
      73 -> 77        -0.19912
      73 -> 78        -0.13611
      73 -> 79        -0.12206
      74 -> 78        -0.26466
      74 -> 79        -0.10473

 Excited State   8:      Singlet-A      5.5197 eV  224.62 nm  f=0.0275  <S**2>=0.000
      70 -> 75         0.54504
      71 -> 77         0.15538
      73 -> 76        -0.11934
      73 -> 77        -0.12938
      74 -> 77        -0.32896

 Excited State   9:      Singlet-A      5.7738 eV  214.74 nm  f=0.2188  <S**2>=0.000
      70 -> 77         0.10243
      71 -> 76         0.14075
      72 -> 78         0.10187
      73 -> 76         0.44642
      73 -> 79         0.12091
      74 -> 78         0.34928
      74 -> 79        -0.23914

 Excited State  10:      Singlet-A      5.8377 eV  212.38 nm  f=0.0158  <S**2>=0.000
      70 -> 75         0.23132
      70 -> 77        -0.10529
      73 -> 76         0.35548
      73 -> 77         0.23532
      74 -> 77         0.11968
      74 -> 78        -0.16797
      74 -> 79         0.39031

 Excited State  11:      Singlet-A      5.8958 eV  210.29 nm  f=0.0960  <S**2>=0.000
      70 -> 75         0.20707
      71 -> 76        -0.17731
      71 -> 77        -0.10746
      72 -> 76         0.23824
      72 -> 77        -0.19719
      73 -> 77         0.38900
      73 -> 78        -0.13471
      74 -> 76         0.10605
      74 -> 78         0.14720
      74 -> 79        -0.18376

 Excited State  12:      Singlet-A      6.0235 eV  205.83 nm  f=0.2013  <S**2>=0.000
      69 -> 75        -0.14813
      72 -> 76         0.26641
      73 -> 77        -0.11697
      74 -> 78         0.43687
      74 -> 79         0.37165

 Excited State  13:      Singlet-A      6.1740 eV  200.82 nm  f=0.0082  <S**2>=0.000
      69 -> 75        -0.28323
      71 -> 76         0.24331
      71 -> 77         0.43995
      72 -> 77        -0.18969
      73 -> 77         0.26795

 Excited State  14:      Singlet-A      6.2498 eV  198.38 nm  f=0.1526  <S**2>=0.000
      69 -> 75         0.51007
      70 -> 75        -0.12679
      71 -> 76         0.18033
      71 -> 77         0.31938
      72 -> 76         0.14242

 Excited State  15:      Singlet-A      6.4237 eV  193.01 nm  f=0.0498  <S**2>=0.000
      68 -> 75        -0.14354
      69 -> 75         0.10062
      69 -> 76        -0.11218
      70 -> 76        -0.12866
      70 -> 77        -0.15874
      71 -> 76         0.42002
      71 -> 77        -0.30023
      71 -> 78        -0.10170
      71 -> 79         0.11249
      72 -> 77        -0.15193
      73 -> 79        -0.13060

 Excited State  16:      Singlet-A      6.4618 eV  191.87 nm  f=0.2553  <S**2>=0.000
      71 -> 76         0.15807
      72 -> 76         0.26548
      72 -> 77         0.42672
      72 -> 78         0.17213
      72 -> 79         0.15478
      73 -> 76        -0.13285
      73 -> 77         0.24460
      73 -> 78         0.21396

 Excited State  17:      Singlet-A      6.5350 eV  189.72 nm  f=0.0395  <S**2>=0.000
      68 -> 75         0.19531
      70 -> 76         0.15645
      70 -> 77         0.32730
      71 -> 76         0.27725
      71 -> 77        -0.14034
      71 -> 78         0.10948
      71 -> 79        -0.16360
      73 -> 78        -0.11890
      73 -> 79         0.17147
      74 -> 79         0.12871
      74 -> 80        -0.18233

 Excited State  18:      Singlet-A      6.6114 eV  187.53 nm  f=0.0044  <S**2>=0.000
      74 -> 80         0.60655
      74 -> 82         0.13425
      74 -> 83        -0.10446

 Excited State  19:      Singlet-A      6.7037 eV  184.95 nm  f=0.0716  <S**2>=0.000
      69 -> 75         0.11763
      70 -> 76         0.13707
      70 -> 77         0.14512
      71 -> 78         0.15434
      71 -> 79        -0.16700
      72 -> 77        -0.15517
      72 -> 78        -0.14863
      72 -> 79         0.12094
      73 -> 78         0.38015
      73 -> 79        -0.31562
      74 -> 79        -0.19493

 Excited State  20:      Singlet-A      6.7772 eV  182.94 nm  f=0.0554  <S**2>=0.000
      68 -> 75         0.17227
      69 -> 75        -0.10327
      69 -> 76         0.16441
      70 -> 77        -0.19884
      72 -> 77        -0.31403
      72 -> 78         0.34972
      72 -> 79         0.12045
      73 -> 76        -0.11422
      73 -> 78         0.18837
      73 -> 79         0.17962

 The electronic state is 1-A.
 Alpha  occ. eigenvalues --  -19.22551 -14.44264 -14.43524 -14.42255 -10.31379
 Alpha  occ. eigenvalues --  -10.30031 -10.29319 -10.28396 -10.28301 -10.27402
 Alpha  occ. eigenvalues --  -10.26705 -10.25544 -10.25482 -10.25382 -10.25054
 Alpha  occ. eigenvalues --  -10.25041 -10.24893 -10.24781 -10.24641 -10.24586
 Alpha  occ. eigenvalues --  -10.24144  -1.15710  -1.11549  -1.08918  -0.95546
 Alpha  occ. eigenvalues --   -0.94217  -0.91008  -0.86304  -0.85421  -0.84436
 Alpha  occ. eigenvalues --   -0.83186  -0.80987  -0.78593  -0.77869  -0.72986
 Alpha  occ. eigenvalues --   -0.70360  -0.68841  -0.68499  -0.65235  -0.63689
 Alpha  occ. eigenvalues --   -0.62043  -0.60160  -0.57677  -0.57107  -0.55664
 Alpha  occ. eigenvalues --   -0.55429  -0.54593  -0.53525  -0.52421  -0.51585
 Alpha  occ. eigenvalues --   -0.50956  -0.50351  -0.49970  -0.49108  -0.48816
 Alpha  occ. eigenvalues --   -0.48004  -0.47139  -0.46945  -0.46681  -0.45408
 Alpha  occ. eigenvalues --   -0.45118  -0.44166  -0.42930  -0.42236  -0.41495
 Alpha  occ. eigenvalues --   -0.40141  -0.39775  -0.38269  -0.34280  -0.32004
 Alpha  occ. eigenvalues --   -0.30335  -0.28744  -0.28040  -0.24687
 Alpha virt. eigenvalues --   -0.02003   0.02118   0.02782   0.05786   0.06588
 Alpha virt. eigenvalues --    0.08140   0.09277   0.10144   0.10997   0.11954
 Alpha virt. eigenvalues --    0.12327   0.12856   0.13992   0.15234   0.15468

 Mulliken charges:
               1
     1  C   -0.059830
     2  C    0.203061
     3  C   -0.086593
     4  C   -0.132362
     5  C   -0.142727
     6  C   -0.057032
     7  C   -0.128819
     8  H    0.128300
     9  H    0.117019
    10  H    0.113341
    11  H    0.128153
    12  C   -0.176013
    13  H    0.149233
    14  H    0.145776
    15  H    0.148155
    16  C    0.232506
    17  C   -0.274005
    18  H    0.150322
    19  H    0.135835
    20  H    0.145277
    21  N   -0.188453
    22  N   -0.198232
    23  C   -0.082326
    24  C   -0.075361
    25  C   -0.035414
    26  C   -0.109680
    27  H    0.115127
    28  C   -0.145809
    29  H    0.135620
    30  C    0.162349
    31  H    0.123194
    32  H    0.139559
    33  O   -0.351218
    34  C   -0.159300
    35  H    0.128540
    36  H    0.142598
    37  H    0.128416
    38  N   -0.469208
 Sum of Mulliken charges =  -0.00000

 Dipole moment (field-independent basis, Debye):
    X=              3.7916    Y=              5.0428    Z=              4.6555  Tot=              7.8409
 Quadrupole moment (field-independent basis, Debye-Ang):
   XX=            -92.9675   YY=           -130.1747   ZZ=           -116.5674
   XY=             -3.0583   XZ=              5.2841   YZ=              0.2294

 Normal termination of Gaussian 16 at Wed Dec 18 01:08:54 2024.
