 Gaussian 16, Revision C.01,
 Gaussian 16:  ES64L-G16RevC.01  3-Jul-2019

 ----------------------------------------------------------------------
 # CAM-B3LYP/6-311G(d,p) td(nstates=20, singlets) scrf=(solvent=acetoni
 trile) EmpiricalDispersion=GD3BJ
 ----------------------------------------------------------------------

 -
 -
 -
 Symbolic Z-matrix:
 Charge =  0 Multiplicity = 1

                         Standard orientation:
 ---------------------------------------------------------------------
 Center     Atomic      Atomic             Coordinates (Angstroms)
 Number     Number       Type             X           Y           Z
 ---------------------------------------------------------------------
      1          6           0       -2.347027   -0.637907    0.006139
      2          6           0       -3.654826   -0.112983    0.004877
      3          6           0       -4.784370   -0.922352    0.017378
      4          6           0       -4.586208   -2.292800    0.031636
      5          6           0       -3.295660   -2.835826    0.033209
      6          6           0       -2.174002   -2.023991    0.020466
      7          6           0       -1.467022    0.507814   -0.008038
      8          1           0       -5.781832   -0.501619    0.016140
      9          1           0       -5.444110   -2.953903    0.041752
     10          1           0       -3.174656   -3.912349    0.044520
     11          1           0       -1.178188   -2.441386    0.021136
     12          6           0       -4.728122    2.146404   -0.015696
     13          1           0       -5.338869    1.962423   -0.900854
     14          1           0       -5.334459    1.979806    0.875909
     15          1           0       -4.402025    3.182074   -0.026547
     16          6           0       -2.261829    1.644820   -0.017619
     17          6           0       -1.825256    3.063863   -0.034617
     18          1           0       -2.188657    3.602435    0.843660
     19          1           0       -0.738755    3.099546   -0.039386
     20          1           0       -2.195298    3.582922   -0.921827
     21          7           0       -0.095387    0.604800   -0.011606
     22          7           0        0.531881   -0.480701   -0.009797
     23          6           0        1.941571   -0.354135   -0.006994
     24          6           0        2.667327   -1.544234   -0.070202
     25          6           0        2.634359    0.851737    0.059356
     26          6           0        4.046952   -1.532380   -0.073576
     27          1           0        2.124398   -2.480149   -0.118952
     28          6           0        4.019706    0.875836    0.058468
     29          1           0        2.076025    1.775907    0.113608
     30          6           0        4.735017   -0.320299   -0.009624
     31          1           0        4.618091   -2.450561   -0.124430
     32          1           0        4.531301    1.826152    0.112441
     33          8           0        6.086767   -0.402867   -0.016947
     34          6           0        6.836707    0.800994    0.044574
     35          1           0        6.632849    1.347955    0.968773
     36          1           0        7.881970    0.503590    0.024561
     37          1           0        6.625810    1.443452   -0.814317
     38          7           0       -3.572442    1.271512   -0.009891
 ---------------------------------------------------------------------

 SCF Done:  E(RCAM-B3LYP) =  -897.278874670     A.U. after   14 cycles

 Excitation energies and oscillator strengths:

 Excited State   1:      Singlet-A      3.0635 eV  404.72 nm  f=0.0020  <S**2>=0.000
      71 -> 75         0.12728
      72 -> 75         0.67394
      72 -> 79         0.10757
 This state for optimization and/or second-order correction.
 Total Energy, E(TD-HF/TD-DFT) =  -897.166293767
 Copying the excited state density for this state as the 1-particle RhoCI density.

 Excited State   2:      Singlet-A      3.5247 eV  351.76 nm  f=1.0673  <S**2>=0.000
      74 -> 75         0.69407

 Excited State   3:      Singlet-A      4.6179 eV  268.48 nm  f=0.0062  <S**2>=0.000
      71 -> 76        -0.11827
      73 -> 75         0.55972
      74 -> 76         0.36648

 Excited State   4:      Singlet-A      4.8092 eV  257.81 nm  f=0.0638  <S**2>=0.000
      70 -> 75         0.31537
      70 -> 79        -0.10984
      71 -> 75        -0.23057
      71 -> 77         0.22534
      73 -> 75         0.11821
      73 -> 76        -0.10047
      74 -> 76        -0.23243
      74 -> 77         0.42309

 Excited State   5:      Singlet-A      4.8896 eV  253.57 nm  f=0.1034  <S**2>=0.000
      70 -> 75         0.20022
      71 -> 75         0.39675
      71 -> 77         0.10835
      73 -> 75        -0.15734
      73 -> 76         0.19053
      74 -> 76         0.30452
      74 -> 77         0.28305
      74 -> 78        -0.12407

 Excited State   6:      Singlet-A      5.0450 eV  245.75 nm  f=0.1014  <S**2>=0.000
      71 -> 75         0.39709
      71 -> 76         0.12941
      73 -> 75         0.34091
      73 -> 76         0.12073
      74 -> 76        -0.39436

 Excited State   7:      Singlet-A      5.2422 eV  236.51 nm  f=0.0501  <S**2>=0.000
      69 -> 75        -0.12961
      71 -> 75        -0.28627
      71 -> 78         0.16894
      73 -> 75         0.11689
      73 -> 76         0.48016
      74 -> 78        -0.28987

 Excited State   8:      Singlet-A      5.7031 eV  217.40 nm  f=0.1805  <S**2>=0.000
      70 -> 75         0.56643
      74 -> 77        -0.37925
      74 -> 78        -0.10021

 Excited State   9:      Singlet-A      5.9217 eV  209.37 nm  f=0.0007  <S**2>=0.000
      71 -> 76         0.11047
      72 -> 76         0.61923
      72 -> 77        -0.28041

 Excited State  10:      Singlet-A      5.9800 eV  207.33 nm  f=0.2102  <S**2>=0.000
      69 -> 75        -0.33404
      70 -> 77         0.10519
      73 -> 76         0.23740
      74 -> 78         0.51173

 Excited State  11:      Singlet-A      6.0278 eV  205.69 nm  f=0.0032  <S**2>=0.000
      71 -> 77         0.11581
      72 -> 76         0.26754
      72 -> 77         0.62269

 Excited State  12:      Singlet-A      6.1561 eV  201.40 nm  f=0.2896  <S**2>=0.000
      69 -> 75         0.54477
      73 -> 76         0.29678
      74 -> 78         0.24247

 Excited State  13:      Singlet-A      6.3810 eV  194.30 nm  f=0.0352  <S**2>=0.000
      69 -> 75         0.14884
      69 -> 76         0.11451
      70 -> 77         0.27439
      71 -> 76        -0.26007
      71 -> 78         0.11533
      71 -> 79         0.10588
      73 -> 78         0.20111
      74 -> 79         0.45263

 Excited State  14:      Singlet-A      6.4255 eV  192.96 nm  f=0.0128  <S**2>=0.000
      69 -> 76         0.23847
      70 -> 77        -0.15309
      71 -> 76        -0.26157
      73 -> 78         0.43844
      74 -> 76        -0.12257
      74 -> 79        -0.29829

 Excited State  15:      Singlet-A      6.6052 eV  187.71 nm  f=0.0377  <S**2>=0.000
      69 -> 77         0.16761
      70 -> 75        -0.11884
      71 -> 77         0.56814
      72 -> 77        -0.10303
      74 -> 77        -0.25079
      74 -> 79        -0.12308

 Excited State  16:      Singlet-A      6.7370 eV  184.04 nm  f=0.0010  <S**2>=0.000
      71 -> 80        -0.10087
      74 -> 80         0.65590
      74 -> 81         0.11042
      74 -> 83        -0.11412

 Excited State  17:      Singlet-A      6.7665 eV  183.23 nm  f=0.0014  <S**2>=0.000
      65 -> 75         0.11034
      67 -> 75        -0.16286
      72 -> 78         0.38659
      72 -> 79         0.48868
      72 -> 99         0.10793

 Excited State  18:      Singlet-A      6.8818 eV  180.16 nm  f=0.6339  <S**2>=0.000
      69 -> 76        -0.13882
      70 -> 77         0.27093
      71 -> 76         0.42595
      73 -> 78         0.40875

 Excited State  19:      Singlet-A      7.0060 eV  176.97 nm  f=0.4990  <S**2>=0.000
      70 -> 76        -0.10292
      70 -> 77         0.49934
      71 -> 76        -0.18260
      73 -> 78        -0.17725
      74 -> 79        -0.33084

 Excited State  20:      Singlet-A      7.0269 eV  176.44 nm  f=0.0109  <S**2>=0.000
      71 -> 80         0.11520
      71 -> 81         0.13767
      74 -> 80        -0.11670
      74 -> 81         0.51819
      74 -> 82        -0.32531
      74 -> 83        -0.19050

 The electronic state is 1-A.
 Alpha  occ. eigenvalues --  -19.22603 -14.44347 -14.42765 -14.41595 -10.31410
 Alpha  occ. eigenvalues --  -10.30157 -10.29335 -10.28394 -10.28216 -10.26961
 Alpha  occ. eigenvalues --  -10.26238 -10.25160 -10.25117 -10.25066 -10.24984
 Alpha  occ. eigenvalues --  -10.24965 -10.24925 -10.24642 -10.24583 -10.24448
 Alpha  occ. eigenvalues --  -10.24123  -1.15754  -1.11717  -1.08872  -0.95524
 Alpha  occ. eigenvalues --   -0.94075  -0.91070  -0.86190  -0.85455  -0.84242
 Alpha  occ. eigenvalues --   -0.83123  -0.81113  -0.78468  -0.77010  -0.73015
 Alpha  occ. eigenvalues --   -0.70163  -0.68744  -0.67580  -0.64933  -0.63277
 Alpha  occ. eigenvalues --   -0.61443  -0.59447  -0.57850  -0.56305  -0.55631
 Alpha  occ. eigenvalues --   -0.54591  -0.54561  -0.53303  -0.52231  -0.51735
 Alpha  occ. eigenvalues --   -0.50703  -0.50530  -0.50118  -0.49491  -0.48916
 Alpha  occ. eigenvalues --   -0.47930  -0.47353  -0.46565  -0.46475  -0.46136
 Alpha  occ. eigenvalues --   -0.44800  -0.44420  -0.42991  -0.42068  -0.41005
 Alpha  occ. eigenvalues --   -0.40388  -0.39684  -0.39144  -0.34048  -0.32145
 Alpha  occ. eigenvalues --   -0.29480  -0.29176  -0.28652  -0.24554
 Alpha virt. eigenvalues --   -0.02759   0.02311   0.03280   0.05693   0.08148
 Alpha virt. eigenvalues --    0.08267   0.09414   0.09687   0.10699   0.11612
 Alpha virt. eigenvalues --    0.12613   0.13645   0.13688   0.14769   0.15261

 Mulliken charges:
               1
     1  C   -0.061653
     2  C    0.198384
     3  C   -0.084705
     4  C   -0.131731
     5  C   -0.134349
     6  C   -0.078476
     7  C   -0.089234
     8  H    0.127900
     9  H    0.117065
    10  H    0.114358
    11  H    0.109784
    12  C   -0.174621
    13  H    0.147561
    14  H    0.147529
    15  H    0.147305
    16  C    0.219257
    17  C   -0.279606
    18  H    0.149026
    19  H    0.144394
    20  H    0.149081
    21  N   -0.180429
    22  N   -0.234593
    23  C   -0.008489
    24  C   -0.077586
    25  C   -0.053325
    26  C   -0.118985
    27  H    0.122041
    28  C   -0.158120
    29  H    0.129766
    30  C    0.162842
    31  H    0.120714
    32  H    0.138621
    33  O   -0.349825
    34  C   -0.158353
    35  H    0.128734
    36  H    0.142783
    37  H    0.128674
    38  N   -0.471742
 Sum of Mulliken charges =  -0.00000

 Dipole moment (field-independent basis, Debye):
    X=             -2.6354    Y=              5.7212    Z=              0.0752  Tot=              6.2994
 Quadrupole moment (field-independent basis, Debye-Ang):
   XX=            -79.9814   YY=           -104.9097   ZZ=           -128.9701
   XY=             -3.0199   XZ=              0.6835   YZ=              0.3074

 Normal termination of Gaussian 16 at Wed Dec 18 01:05:54 2024.
