 Gaussian 16, Revision C.01,
 Gaussian 16:  ES64L-G16RevC.01  3-Jul-2019

 ----------------------------------------------------------------------
 # CAM-B3LYP/6-311G(d,p) td(nstates=20, singlets) scrf=(solvent=acetoni
 trile) EmpiricalDispersion=GD3BJ
 ----------------------------------------------------------------------

 -
 -
 -
 Symbolic Z-matrix:
 Charge =  0 Multiplicity = 1

                         Standard orientation:
 ---------------------------------------------------------------------
 Center     Atomic      Atomic             Coordinates (Angstroms)
 Number     Number       Type             X           Y           Z
 ---------------------------------------------------------------------
      1          6           0        2.456288    0.823325   -0.037386
      2          6           0        3.714016    0.197341   -0.003675
      3          6           0        4.903261    0.920375   -0.036254
      4          6           0        4.807834    2.298672   -0.109580
      5          6           0        3.560754    2.939926   -0.148733
      6          6           0        2.383904    2.215227   -0.115142
      7          6           0        1.473394   -0.227418    0.012549
      8          1           0        5.868105    0.431074   -0.000967
      9          1           0        5.713042    2.892841   -0.135503
     10          1           0        3.523405    4.021106   -0.205588
     11          1           0        1.422234    2.711859   -0.146743
     12          6           0        4.569165   -2.149471    0.164560
     13          1           0        5.400882   -1.841948   -0.467239
     14          1           0        4.921122   -2.247997    1.193623
     15          1           0        4.216189   -3.115622   -0.185666
     16          6           0        2.162337   -1.434262    0.087317
     17          6           0        1.652896   -2.824562    0.219839
     18          1           0        2.192397   -3.368960    0.997071
     19          1           0        0.594068   -2.799850    0.454762
     20          1           0        1.771806   -3.376002   -0.717879
     21          7           0        0.122394    0.062518    0.010654
     22          7           0       -0.678928   -0.888948   -0.128346
     23          6           0       -2.046363   -0.526842   -0.084050
     24          6           0       -2.961421   -1.536016   -0.385265
     25          6           0       -2.523067    0.739642    0.242744
     26          6           0       -4.317863   -1.285085   -0.374795
     27          1           0       -2.583995   -2.520392   -0.633446
     28          6           0       -3.883006    1.002295    0.259240
     29          1           0       -1.815199    1.519330    0.487347
     30          6           0       -4.789658   -0.011859   -0.052924
     31          1           0       -5.036337   -2.059504   -0.611011
     32          1           0       -4.226698    1.993185    0.519341
     33          8           0       -6.134196    0.143513   -0.064323
     34          6           0       -6.669603    1.420080    0.251965
     35          1           0       -6.327330    2.179282   -0.455954
     36          1           0       -7.749155    1.317969    0.177885
     37          1           0       -6.402526    1.720874    1.268304
     38          7           0        3.504298   -1.169793    0.065376
 ---------------------------------------------------------------------

 SCF Done:  E(RCAM-B3LYP) =  -897.273276751     A.U. after   15 cycles

 Excitation energies and oscillator strengths:

 Excited State   1:      Singlet-A      2.9203 eV  424.56 nm  f=0.0341  <S**2>=0.000
      71 -> 75        -0.32758
      72 -> 75         0.55963
      73 -> 75        -0.13681
      74 -> 75         0.18890
 This state for optimization and/or second-order correction.
 Total Energy, E(TD-HF/TD-DFT) =  -897.165957266
 Copying the excited state density for this state as the 1-particle RhoCI density.

 Excited State   2:      Singlet-A      3.4425 eV  360.16 nm  f=0.8950  <S**2>=0.000
      71 -> 75         0.11034
      72 -> 75        -0.14721
      74 -> 75         0.66991

 Excited State   3:      Singlet-A      4.5622 eV  271.77 nm  f=0.0689  <S**2>=0.000
      71 -> 75        -0.14319
      73 -> 75         0.62540
      73 -> 76        -0.10778
      74 -> 76         0.19489

 Excited State   4:      Singlet-A      4.7700 eV  259.93 nm  f=0.0243  <S**2>=0.000
      70 -> 75        -0.19670
      71 -> 75         0.34427
      71 -> 77        -0.16587
      72 -> 75         0.19977
      74 -> 76         0.43215
      74 -> 77        -0.21134

 Excited State   5:      Singlet-A      4.8527 eV  255.50 nm  f=0.0710  <S**2>=0.000
      70 -> 75         0.34955
      70 -> 79        -0.10539
      71 -> 75         0.29727
      71 -> 77         0.16850
      72 -> 75         0.15138
      72 -> 77         0.10227
      74 -> 76         0.12506
      74 -> 77         0.41036

 Excited State   6:      Singlet-A      5.0053 eV  247.70 nm  f=0.1849  <S**2>=0.000
      71 -> 75        -0.35189
      71 -> 76        -0.12858
      72 -> 75        -0.26317
      73 -> 75        -0.20688
      74 -> 76         0.43498
      74 -> 77         0.14083

 Excited State   7:      Singlet-A      5.1838 eV  239.18 nm  f=0.0062  <S**2>=0.000
      71 -> 78         0.14909
      72 -> 76         0.10847
      73 -> 75         0.17333
      73 -> 76         0.49792
      73 -> 77         0.11723
      74 -> 78        -0.33817

 Excited State   8:      Singlet-A      5.6469 eV  219.56 nm  f=0.2671  <S**2>=0.000
      70 -> 75         0.55414
      74 -> 77        -0.39860

 Excited State   9:      Singlet-A      5.9666 eV  207.80 nm  f=0.0138  <S**2>=0.000
      71 -> 76         0.21333
      71 -> 77        -0.32480
      72 -> 76        -0.32809
      72 -> 77         0.44647
      73 -> 77        -0.10968

 Excited State  10:      Singlet-A      6.0442 eV  205.13 nm  f=0.5097  <S**2>=0.000
      69 -> 75        -0.22555
      72 -> 76        -0.11778
      73 -> 76         0.33661
      74 -> 78         0.51394

 Excited State  11:      Singlet-A      6.1349 eV  202.10 nm  f=0.0930  <S**2>=0.000
      69 -> 75         0.51557
      70 -> 77        -0.12157
      72 -> 76         0.27007
      73 -> 76         0.16763
      74 -> 78         0.19551
      74 -> 79        -0.17259

 Excited State  12:      Singlet-A      6.1387 eV  201.97 nm  f=0.0038  <S**2>=0.000
      69 -> 75        -0.28251
      71 -> 76        -0.21005
      71 -> 77        -0.20133
      72 -> 76         0.41749
      72 -> 77         0.32203

 Excited State  13:      Singlet-A      6.3238 eV  196.06 nm  f=0.0131  <S**2>=0.000
      69 -> 75         0.21481
      70 -> 77         0.26137
      71 -> 76        -0.22241
      71 -> 79         0.13040
      73 -> 78         0.14465
      74 -> 79         0.47530

 Excited State  14:      Singlet-A      6.4575 eV  192.00 nm  f=0.1046  <S**2>=0.000
      69 -> 76         0.21155
      70 -> 77        -0.10011
      71 -> 76        -0.23617
      72 -> 78         0.11224
      73 -> 78         0.50644
      74 -> 76        -0.13909
      74 -> 79        -0.22574

 Excited State  15:      Singlet-A      6.5443 eV  189.45 nm  f=0.0323  <S**2>=0.000
      69 -> 77         0.15489
      70 -> 75        -0.11487
      71 -> 77         0.46655
      72 -> 77         0.27402
      73 -> 77        -0.18646
      74 -> 77        -0.27196
      74 -> 79        -0.10844

 Excited State  16:      Singlet-A      6.7663 eV  183.24 nm  f=0.0103  <S**2>=0.000
      70 -> 77        -0.12116
      71 -> 79        -0.10908
      74 -> 79         0.13802
      74 -> 80         0.62912

 Excited State  17:      Singlet-A      6.8047 eV  182.20 nm  f=0.0143  <S**2>=0.000
      63 -> 75        -0.12103
      67 -> 75         0.17990
      70 -> 77        -0.13100
      71 -> 79        -0.29335
      72 -> 76         0.11517
      72 -> 79         0.46575
      73 -> 79        -0.11242
      74 -> 80        -0.14541

 Excited State  18:      Singlet-A      6.8937 eV  179.85 nm  f=0.6578  <S**2>=0.000
      69 -> 76        -0.16782
      70 -> 76        -0.10549
      70 -> 77         0.25264
      71 -> 76         0.40508
      71 -> 77         0.10524
      72 -> 76         0.20244
      73 -> 78         0.35301

 Excited State  19:      Singlet-A      6.9910 eV  177.35 nm  f=0.2194  <S**2>=0.000
      67 -> 75         0.12493
      70 -> 76        -0.12783
      70 -> 77         0.45284
      71 -> 76        -0.14206
      72 -> 79         0.11960
      73 -> 78        -0.10409
      74 -> 79        -0.31696
      74 -> 80         0.11247
      74 -> 81         0.16557

 Excited State  20:      Singlet-A      7.0042 eV  177.02 nm  f=0.0139  <S**2>=0.000
      70 -> 77        -0.10435
      71 -> 76         0.10366
      71 -> 82         0.10714
      74 -> 80        -0.10569
      74 -> 81         0.56670
      74 -> 82        -0.19029
      74 -> 83        -0.16218

 The electronic state is 1-A.
 Alpha  occ. eigenvalues --  -19.22687 -14.44374 -14.42969 -14.42029 -10.31540
 Alpha  occ. eigenvalues --  -10.30114 -10.29369 -10.28344 -10.28046 -10.27087
 Alpha  occ. eigenvalues --  -10.26295 -10.25301 -10.25245 -10.25047 -10.25044
 Alpha  occ. eigenvalues --  -10.24757 -10.24728 -10.24616 -10.24469 -10.24459
 Alpha  occ. eigenvalues --  -10.24154  -1.15848  -1.11904  -1.08765  -0.95618
 Alpha  occ. eigenvalues --   -0.94156  -0.90794  -0.86233  -0.85321  -0.84357
 Alpha  occ. eigenvalues --   -0.83157  -0.81218  -0.78326  -0.77067  -0.72948
 Alpha  occ. eigenvalues --   -0.70154  -0.68673  -0.66868  -0.66202  -0.63363
 Alpha  occ. eigenvalues --   -0.61414  -0.59498  -0.58219  -0.56662  -0.55571
 Alpha  occ. eigenvalues --   -0.54649  -0.54486  -0.53225  -0.52272  -0.51155
 Alpha  occ. eigenvalues --   -0.50737  -0.50396  -0.50186  -0.49792  -0.48607
 Alpha  occ. eigenvalues --   -0.48018  -0.47059  -0.46987  -0.46619  -0.45705
 Alpha  occ. eigenvalues --   -0.44988  -0.44515  -0.43062  -0.42306  -0.40663
 Alpha  occ. eigenvalues --   -0.40222  -0.39758  -0.39163  -0.34313  -0.32246
 Alpha  occ. eigenvalues --   -0.29377  -0.29278  -0.28443  -0.24605
 Alpha virt. eigenvalues --   -0.03079   0.02391   0.03197   0.05826   0.07688
 Alpha virt. eigenvalues --    0.08463   0.09299   0.09893   0.10745   0.11594
 Alpha virt. eigenvalues --    0.12519   0.13776   0.13865   0.14643   0.14808

 Mulliken charges:
               1
     1  C   -0.080814
     2  C    0.201134
     3  C   -0.081953
     4  C   -0.136844
     5  C   -0.137580
     6  C   -0.074296
     7  C   -0.085242
     8  H    0.126665
     9  H    0.116187
    10  H    0.115002
    11  H    0.107706
    12  C   -0.176695
    13  H    0.144060
    14  H    0.151305
    15  H    0.149615
    16  C    0.236394
    17  C   -0.284415
    18  H    0.141716
    19  H    0.140282
    20  H    0.149699
    21  N   -0.184779
    22  N   -0.224667
    23  C   -0.004502
    24  C   -0.075910
    25  C   -0.047236
    26  C   -0.118997
    27  H    0.119518
    28  C   -0.158170
    29  H    0.123855
    30  C    0.163525
    31  H    0.121814
    32  H    0.140273
    33  O   -0.348939
    34  C   -0.158651
    35  H    0.129326
    36  H    0.143171
    37  H    0.129261
    38  N   -0.470818
 Sum of Mulliken charges =  -0.00000

 Dipole moment (field-independent basis, Debye):
    X=              2.1823    Y=             -1.6652    Z=              0.8374  Tot=              2.8699
 Quadrupole moment (field-independent basis, Debye-Ang):
   XX=            -85.8761   YY=           -105.0399   ZZ=           -128.3765
   XY=            -25.2578   XZ=             -1.7845   YZ=              1.1270

 Normal termination of Gaussian 16 at Wed Dec 18 01:02:06 2024.
