 Gaussian 16, Revision C.01,
 Gaussian 16:  ES64L-G16RevC.01  3-Jul-2019

 ----------------------------------------------------------------------
 # CAM-B3LYP/6-311G(d,p) td(nstates=20, singlets) scrf=(solvent=acetoni
 trile) EmpiricalDispersion=GD3BJ
 ----------------------------------------------------------------------

 -
 -
 -
 Symbolic Z-matrix:
 Charge =  0 Multiplicity = 1

                         Standard orientation:
 ---------------------------------------------------------------------
 Center     Atomic      Atomic             Coordinates (Angstroms)
 Number     Number       Type             X           Y           Z
 ---------------------------------------------------------------------
      1          6           0        2.395605   -0.565462   -0.302339
      2          6           0        2.698700    0.725379    0.174803
      3          6           0        3.781522    1.452704   -0.315038
      4          6           0        4.555592    0.863021   -1.297785
      5          6           0        4.263438   -0.420189   -1.785928
      6          6           0        3.186755   -1.137834   -1.301482
      7          6           0        1.219981   -0.989247    0.401258
      8          1           0        4.016957    2.441261    0.057775
      9          1           0        5.405212    1.402742   -1.697873
     10          1           0        4.893711   -0.850580   -2.554602
     11          1           0        2.959517   -2.126652   -1.680659
     12          6           0        1.803382    2.256123    1.944003
     13          1           0        2.448908    2.138725    2.817495
     14          1           0        2.176182    3.078944    1.336723
     15          1           0        0.798919    2.510528    2.273516
     16          6           0        0.884344    0.005347    1.294592
     17          6           0       -0.174636    0.025218    2.337056
     18          1           0       -1.041348    0.609439    2.014843
     19          1           0       -0.518536   -0.986501    2.540418
     20          1           0        0.197329    0.450065    3.270112
     21          7           0        0.686961   -2.286113    0.260576
     22          7           0       -0.531859   -2.523695    0.165442
     23          6           0       -1.519702   -1.501880   -0.001487
     24          6           0       -2.721305   -1.666702    0.684202
     25          6           0       -1.402057   -0.468686   -0.923498
     26          6           0       -3.759373   -0.775411    0.506701
     27          1           0       -2.824204   -2.500748    1.367507
     28          6           0       -2.450697    0.415153   -1.130254
     29          1           0       -0.491996   -0.351482   -1.496333
     30          6           0       -3.630485    0.276437   -0.400732
     31          1           0       -4.689840   -0.881822    1.049387
     32          1           0       -2.336500    1.202950   -1.860673
     33          8           0       -4.701990    1.095745   -0.517348
     34          6           0       -4.625893    2.178697   -1.432420
     35          1           0       -4.487343    1.822971   -2.456694
     36          1           0       -5.576237    2.700737   -1.357444
     37          1           0       -3.814389    2.862331   -1.169770
     38          7           0        1.768978    1.049112    1.141861
 ---------------------------------------------------------------------

 SCF Done:  E(RCAM-B3LYP) =  -897.253602044     A.U. after   15 cycles

 Excitation energies and oscillator strengths:

 Excited State   1:      Singlet-A      2.6723 eV  463.96 nm  f=0.0739  <S**2>=0.000
      71 -> 75         0.33167
      72 -> 75        -0.15864
      74 -> 75         0.58716
 This state for optimization and/or second-order correction.
 Total Energy, E(TD-HF/TD-DFT) =  -897.155396455
 Copying the excited state density for this state as the 1-particle RhoCI density.

 Excited State   2:      Singlet-A      3.9072 eV  317.33 nm  f=0.1171  <S**2>=0.000
      69 -> 75        -0.19627
      71 -> 75         0.41077
      72 -> 75        -0.36309
      74 -> 75        -0.36256

 Excited State   3:      Singlet-A      4.5002 eV  275.51 nm  f=0.1146  <S**2>=0.000
      68 -> 75         0.15497
      71 -> 75         0.36129
      72 -> 75         0.49905
      73 -> 75        -0.13953
      74 -> 76         0.17501

 Excited State   4:      Singlet-A      4.5913 eV  270.04 nm  f=0.0569  <S**2>=0.000
      73 -> 75         0.47039
      74 -> 76         0.47682

 Excited State   5:      Singlet-A      4.7239 eV  262.46 nm  f=0.0448  <S**2>=0.000
      70 -> 75         0.23529
      70 -> 79        -0.12249
      72 -> 77        -0.26880
      74 -> 77         0.57370

 Excited State   6:      Singlet-A      4.8464 eV  255.83 nm  f=0.2688  <S**2>=0.000
      71 -> 75         0.15304
      72 -> 75         0.16613
      73 -> 75         0.46072
      74 -> 76        -0.43295

 Excited State   7:      Singlet-A      5.0717 eV  244.46 nm  f=0.0166  <S**2>=0.000
      72 -> 78        -0.17010
      73 -> 75         0.15746
      73 -> 76         0.52270
      74 -> 78        -0.33801

 Excited State   8:      Singlet-A      5.5016 eV  225.36 nm  f=0.1759  <S**2>=0.000
      70 -> 75         0.54036
      71 -> 77        -0.13558
      72 -> 77        -0.14374
      74 -> 77        -0.34171
      74 -> 79         0.11520

 Excited State   9:      Singlet-A      5.7353 eV  216.18 nm  f=0.1280  <S**2>=0.000
      70 -> 75        -0.13939
      70 -> 77         0.12233
      72 -> 76         0.16905
      72 -> 79        -0.16307
      73 -> 76        -0.11081
      74 -> 78        -0.14358
      74 -> 79         0.58063

 Excited State  10:      Singlet-A      5.8924 eV  210.41 nm  f=0.2745  <S**2>=0.000
      69 -> 75         0.18643
      70 -> 75        -0.24644
      72 -> 76         0.17270
      72 -> 77        -0.26367
      73 -> 76         0.23764
      74 -> 78         0.43114

 Excited State  11:      Singlet-A      6.0086 eV  206.35 nm  f=0.3300  <S**2>=0.000
      70 -> 75         0.21338
      70 -> 79         0.10163
      71 -> 77         0.20567
      72 -> 77         0.39422
      73 -> 76         0.19722
      74 -> 77         0.14316
      74 -> 78         0.32629
      74 -> 79         0.12464

 Excited State  12:      Singlet-A      6.0526 eV  204.84 nm  f=0.0135  <S**2>=0.000
      69 -> 75         0.34445
      71 -> 75         0.10424
      71 -> 76        -0.23585
      72 -> 75        -0.10973
      72 -> 76         0.32793
      72 -> 77         0.16305
      73 -> 76        -0.17559
      73 -> 78         0.15813
      74 -> 76        -0.11459
      74 -> 78        -0.12736
      74 -> 79        -0.14811

 Excited State  13:      Singlet-A      6.1262 eV  202.38 nm  f=0.0004  <S**2>=0.000
      69 -> 75         0.44141
      71 -> 76         0.16089
      72 -> 75        -0.12705
      72 -> 76        -0.33295
      72 -> 77         0.14347
      73 -> 78        -0.19311
      74 -> 79         0.14755

 Excited State  14:      Singlet-A      6.3501 eV  195.25 nm  f=0.0806  <S**2>=0.000
      69 -> 77        -0.12318
      70 -> 77         0.12569
      71 -> 77         0.56522
      72 -> 77        -0.24847
      73 -> 77        -0.17687

 Excited State  15:      Singlet-A      6.5226 eV  190.08 nm  f=0.1249  <S**2>=0.000
      72 -> 76         0.12882
      73 -> 77         0.16647
      73 -> 78        -0.29181
      74 -> 80         0.54448
      74 -> 84        -0.12816

 Excited State  16:      Singlet-A      6.5280 eV  189.93 nm  f=0.0568  <S**2>=0.000
      68 -> 75         0.14383
      70 -> 77        -0.20450
      71 -> 76        -0.14565
      71 -> 79         0.12967
      72 -> 76        -0.22124
      72 -> 79         0.27913
      73 -> 78         0.26981
      74 -> 79         0.15002
      74 -> 80         0.30749

 Excited State  17:      Singlet-A      6.5653 eV  188.85 nm  f=0.1129  <S**2>=0.000
      69 -> 75         0.11844
      69 -> 76        -0.11638
      70 -> 77         0.23069
      71 -> 76         0.28138
      71 -> 77        -0.13486
      71 -> 79        -0.14947
      72 -> 79        -0.17987
      73 -> 77        -0.20764
      73 -> 78         0.33157
      74 -> 80         0.19311

 Excited State  18:      Singlet-A      6.7456 eV  183.80 nm  f=0.0168  <S**2>=0.000
      69 -> 76        -0.11116
      71 -> 77         0.15502
      73 -> 77         0.58404
      73 -> 78         0.25643

 Excited State  19:      Singlet-A      6.7875 eV  182.67 nm  f=0.0562  <S**2>=0.000
      68 -> 75         0.12888
      70 -> 77        -0.21767
      71 -> 76         0.47160
      71 -> 77         0.14357
      72 -> 76         0.26449
      72 -> 79         0.15013
      74 -> 76        -0.10378

 Excited State  20:      Singlet-A      6.8172 eV  181.87 nm  f=0.1389  <S**2>=0.000
      68 -> 75        -0.13233
      69 -> 76        -0.11959
      69 -> 79         0.12998
      70 -> 77         0.19720
      71 -> 79        -0.29611
      72 -> 79         0.41455
      74 -> 79         0.13984
      74 -> 84        -0.17487
      74 -> 85        -0.11097

 The electronic state is 1-A.
 Alpha  occ. eigenvalues --  -19.22713 -14.44078 -14.43881 -14.43648 -10.31610
 Alpha  occ. eigenvalues --  -10.29617 -10.29406 -10.28238 -10.28079 -10.27798
 Alpha  occ. eigenvalues --  -10.26428 -10.25881 -10.25637 -10.25250 -10.24991
 Alpha  occ. eigenvalues --  -10.24966 -10.24944 -10.24894 -10.24716 -10.24467
 Alpha  occ. eigenvalues --  -10.24103  -1.15886  -1.12463  -1.08473  -0.95766
 Alpha  occ. eigenvalues --   -0.94112  -0.90658  -0.86515  -0.85348  -0.84656
 Alpha  occ. eigenvalues --   -0.83167  -0.81017  -0.78463  -0.77877  -0.73008
 Alpha  occ. eigenvalues --   -0.70312  -0.68763  -0.68400  -0.66099  -0.63928
 Alpha  occ. eigenvalues --   -0.61849  -0.60318  -0.57821  -0.57479  -0.55449
 Alpha  occ. eigenvalues --   -0.55181  -0.54681  -0.53370  -0.52607  -0.51099
 Alpha  occ. eigenvalues --   -0.50997  -0.50513  -0.50205  -0.49477  -0.48840
 Alpha  occ. eigenvalues --   -0.48210  -0.47215  -0.47079  -0.46483  -0.45623
 Alpha  occ. eigenvalues --   -0.45352  -0.44357  -0.43080  -0.42433  -0.40918
 Alpha  occ. eigenvalues --   -0.40105  -0.39729  -0.38685  -0.34494  -0.32449
 Alpha  occ. eigenvalues --   -0.30889  -0.28543  -0.28284  -0.24528
 Alpha virt. eigenvalues --   -0.02292   0.02152   0.02714   0.05806   0.06220
 Alpha virt. eigenvalues --    0.08145   0.09441   0.10145   0.10717   0.11801
 Alpha virt. eigenvalues --    0.12168   0.12346   0.13675   0.14319   0.14639

 Mulliken charges:
               1
     1  C   -0.027604
     2  C    0.194235
     3  C   -0.083777
     4  C   -0.138620
     5  C   -0.137526
     6  C   -0.078494
     7  C   -0.188806
     8  H    0.125779
     9  H    0.116192
    10  H    0.115049
    11  H    0.104364
    12  C   -0.177858
    13  H    0.148167
    14  H    0.142018
    15  H    0.147564
    16  C    0.248703
    17  C   -0.279058
    18  H    0.155884
    19  H    0.140585
    20  H    0.147286
    21  N   -0.165590
    22  N   -0.169116
    23  C   -0.112970
    24  C   -0.050286
    25  C   -0.010293
    26  C   -0.113508
    27  H    0.118296
    28  C   -0.161238
    29  H    0.139375
    30  C    0.167844
    31  H    0.124147
    32  H    0.141728
    33  O   -0.349464
    34  C   -0.159566
    35  H    0.129611
    36  H    0.143430
    37  H    0.128963
    38  N   -0.475444
 Sum of Mulliken charges =  -0.00000

 Dipole moment (field-independent basis, Debye):
    X=             -1.3749    Y=              8.0449    Z=              1.3755  Tot=              8.2766
 Quadrupole moment (field-independent basis, Debye-Ang):
   XX=           -120.4419   YY=           -123.9265   ZZ=           -111.7921
   XY=              1.5567   XZ=              3.2587   YZ=              0.9706

 Normal termination of Gaussian 16 at Wed Dec 18 01:07:15 2024.
