 Gaussian 16, Revision C.01,
 Gaussian 16:  ES64L-G16RevC.01  3-Jul-2019

 ----------------------------------------------------------------------
 # freq CAM-B3LYP/6-311G(d,p) scrf=(solvent=acetonitrile) empiricaldisp
 ersion=gd3bj
 ----------------------------------------------------------------------

 -
 -
 -
 Symbolic Z-matrix:
 Charge =  0 Multiplicity = 1

                         Standard orientation:
 ---------------------------------------------------------------------
 Center     Atomic      Atomic             Coordinates (Angstroms)
 Number     Number       Type             X           Y           Z
 ---------------------------------------------------------------------
      1          6           0       -2.755660   -0.675285    0.078909
      2          6           0       -3.527816    0.491275    0.044747
      3          6           0       -4.902774    0.481258    0.245560
      4          6           0       -5.497773   -0.747337    0.483405
      5          6           0       -4.740400   -1.925474    0.519661
      6          6           0       -3.370043   -1.899525    0.322774
      7          6           0       -1.372025   -0.272193   -0.147333
      8          1           0       -5.490152    1.390175    0.219741
      9          1           0       -6.567592   -0.796720    0.644540
     10          1           0       -5.239094   -2.869212    0.704711
     11          1           0       -2.780865   -2.808559    0.352771
     12          6           0       -3.155561    2.923594   -0.403826
     13          1           0       -3.864754    2.967107   -1.231502
     14          1           0       -3.646545    3.270701    0.505951
     15          1           0       -2.319167    3.580234   -0.621711
     16          6           0       -1.402618    1.129807   -0.326276
     17          6           0       -0.276840    2.031087   -0.666545
     18          1           0       -0.434025    2.508667   -1.636501
     19          1           0       -0.158085    2.820486    0.079546
     20          1           0        0.643088    1.456053   -0.718731
     21          7           0       -0.327319   -1.074349   -0.211392
     22          7           0        0.668730   -1.815947   -0.291858
     23          6           0        1.956872   -1.187000   -0.188472
     24          6           0        3.021602   -1.811127   -0.836083
     25          6           0        2.207024   -0.070474    0.596025
     26          6           0        4.297869   -1.295606   -0.746683
     27          1           0        2.822213   -2.703634   -1.417369
     28          6           0        3.491823    0.446145    0.713863
     29          1           0        1.392123    0.386663    1.143226
     30          6           0        4.541924   -0.159399    0.028782
     31          1           0        5.130218   -1.757833   -1.262367
     32          1           0        3.660609    1.308593    1.342776
     33          8           0        5.829132    0.268570    0.064882
     34          6           0        6.132835    1.415751    0.842190
     35          1           0        5.906709    1.250579    1.899086
     36          1           0        7.200293    1.584153    0.724367
     37          1           0        5.585881    2.292863    0.485742
     38          7           0       -2.679202    1.564316   -0.224966
 ---------------------------------------------------------------------

 SCF Done:  E(RCAM-B3LYP) =  -897.208776070     A.U. after   16 cycles

 The electronic state is 1-A.
 Alpha  occ. eigenvalues --  -19.22359 -14.45171 -14.42330 -14.40305 -10.31086
 Alpha  occ. eigenvalues --  -10.30815 -10.29239 -10.28940 -10.28646 -10.28341
 Alpha  occ. eigenvalues --  -10.26262 -10.25324 -10.25137 -10.25053 -10.24917
 Alpha  occ. eigenvalues --  -10.24839 -10.24802 -10.24708 -10.24681 -10.24584
 Alpha  occ. eigenvalues --  -10.24452  -1.15491  -1.10066  -1.08906  -0.95323
 Alpha  occ. eigenvalues --   -0.94413  -0.91834  -0.85898  -0.85810  -0.84090
 Alpha  occ. eigenvalues --   -0.83375  -0.82290  -0.78830  -0.77710  -0.72906
 Alpha  occ. eigenvalues --   -0.70108  -0.69192  -0.67912  -0.65809  -0.63353
 Alpha  occ. eigenvalues --   -0.62074  -0.59726  -0.57949  -0.56586  -0.55923
 Alpha  occ. eigenvalues --   -0.55847  -0.54437  -0.53569  -0.52187  -0.51333
 Alpha  occ. eigenvalues --   -0.51166  -0.50247  -0.50026  -0.49419  -0.49041
 Alpha  occ. eigenvalues --   -0.48157  -0.47550  -0.46831  -0.46500  -0.46050
 Alpha  occ. eigenvalues --   -0.44884  -0.44312  -0.42921  -0.42172  -0.41116
 Alpha  occ. eigenvalues --   -0.40267  -0.39564  -0.38499  -0.34204  -0.31982
 Alpha  occ. eigenvalues --   -0.29275  -0.28882  -0.25895  -0.22459
 Alpha virt. eigenvalues --   -0.02325   0.02359   0.03156   0.05533   0.06983
 Alpha virt. eigenvalues --    0.08162   0.09419   0.10167   0.11149   0.11704
 Alpha virt. eigenvalues --    0.12867   0.13802   0.14179   0.14993   0.15400

 Mulliken charges:
               1
     1  C   -0.078481
     2  C    0.196664
     3  C   -0.074374
     4  C   -0.135741
     5  C   -0.130939
     6  C   -0.072856
     7  C    0.067402
     8  H    0.128876
     9  H    0.118752
    10  H    0.117631
    11  H    0.106295
    12  C   -0.175201
    13  H    0.151179
    14  H    0.151748
    15  H    0.150196
    16  C    0.217089
    17  C   -0.283280
    18  H    0.156407
    19  H    0.154585
    20  H    0.143608
    21  N   -0.309632
    22  N   -0.228885
    23  C    0.018944
    24  C   -0.083689
    25  C   -0.117011
    26  C   -0.115442
    27  H    0.105751
    28  C   -0.149505
    29  H    0.136071
    30  C    0.155596
    31  H    0.120490
    32  H    0.137547
    33  O   -0.353084
    34  C   -0.158240
    35  H    0.127209
    36  H    0.141617
    37  H    0.126771
    38  N   -0.464071
 Sum of Mulliken charges =  -0.00000

 Dipole moment (field-independent basis, Debye):
    X=             -1.9572    Y=              9.1601    Z=              0.7239  Tot=              9.3948
 Quadrupole moment (field-independent basis, Debye-Ang):
   XX=           -104.0788   YY=           -109.4519   ZZ=           -124.2574
   XY=             -1.0826   XZ=              5.9850   YZ=              0.6120

  Exact polarizability:     504.575     -20.908     307.357     -19.761      13.323     157.692
 Approx polarizability:     378.372     -18.064     290.733     -19.338      14.817     161.378

 ******    1 imaginary frequencies (negative Signs) ******

                      1                      2                      3
                      A                      A                      A
 Frequencies --   -499.3699                26.2474                44.2346
 Red. masses --     13.0548                 5.1139                 3.5519
 Frc consts  --      1.9181                 0.0021                 0.0041
 IR Inten    --    105.5754                 0.8589                 0.9465

                      4                      5                      6
                      A                      A                      A
 Frequencies --     47.0756                71.1969                90.6343
 Red. masses --      3.9437                 1.1192                 3.2753
 Frc consts  --      0.0051                 0.0033                 0.0159
 IR Inten    --      0.7121                 0.0819                 1.4975

                      7                      8                      9
                      A                      A                      A
 Frequencies --    117.4210               123.3029               132.8032
 Red. masses --      4.0098                 4.9455                 2.6283
 Frc consts  --      0.0326                 0.0443                 0.0273
 IR Inten    --      0.8303                 2.3517                 5.9436

                     10                     11                     12
                      A                      A                      A
 Frequencies --    146.0333               175.2589               193.5340
 Red. masses --      3.0311                 2.6460                 1.4322
 Frc consts  --      0.0381                 0.0479                 0.0316
 IR Inten    --      0.4433                10.1450                 1.0493

                     13                     14                     15
                      A                      A                      A
 Frequencies --    227.4223               253.3934               266.8106
 Red. masses --      3.7971                 1.6109                 2.0192
 Frc consts  --      0.1157                 0.0609                 0.0847
 IR Inten    --      9.8201                 0.2516                 4.1658

                     16                     17                     18
                      A                      A                      A
 Frequencies --    297.7084               307.7573               324.8350
 Red. masses --      4.5104                 4.0030                 3.8143
 Frc consts  --      0.2355                 0.2234                 0.2371
 IR Inten    --      3.6910                 5.1777                 2.9106

                     19                     20                     21
                      A                      A                      A
 Frequencies --    325.3213               378.5609               441.8858
 Red. masses --      3.2790                 6.0830                 3.0897
 Frc consts  --      0.2045                 0.5136                 0.3555
 IR Inten    --      0.7299                13.8567                 2.5946

                     22                     23                     24
                      A                      A                      A
 Frequencies --    450.6361               456.6134               494.3872
 Red. masses --      3.0840                 5.4146                 6.1237
 Frc consts  --      0.3690                 0.6651                 0.8819
 IR Inten    --      8.5886                20.7215                 8.4732

                     25                     26                     27
                      A                      A                      A
 Frequencies --    501.2786               528.2851               548.0728
 Red. masses --      5.2324                 4.7446                 3.0619
 Frc consts  --      0.7747                 0.7802                 0.5419
 IR Inten    --      0.3081                33.4161                28.1795

                     28                     29                     30
                      A                      A                      A
 Frequencies --    570.5117               600.7714               608.3871
 Red. masses --      4.7667                 4.0528                 3.7797
 Frc consts  --      0.9141                 0.8618                 0.8243
 IR Inten    --     23.0908                 3.0150                 1.7706

                     31                     32                     33
                      A                      A                      A
 Frequencies --    633.8570               656.3902               690.9531
 Red. masses --      5.4033                 6.7264                 3.7627
 Frc consts  --      1.2791                 1.7075                 1.0584
 IR Inten    --      2.5259                 1.2051                 6.6319

                     34                     35                     36
                      A                      A                      A
 Frequencies --    709.8115               733.2396               764.3490
 Red. masses --      4.9671                 4.7606                 4.3816
 Frc consts  --      1.4745                 1.5080                 1.5082
 IR Inten    --      5.1220                23.2690                 2.3533

                     37                     38                     39
                      A                      A                      A
 Frequencies --    775.5100               798.2065               816.2738
 Red. masses --      1.3463                 4.0665                 3.6797
 Frc consts  --      0.4771                 1.5265                 1.4446
 IR Inten    --    102.4669                 1.6438                12.5978

                     40                     41                     42
                      A                      A                      A
 Frequencies --    846.3081               849.7125               874.8207
 Red. masses --      1.3148                 4.5981                 1.8246
 Frc consts  --      0.5548                 1.9560                 0.8227
 IR Inten    --      5.8596                15.1803               125.0575

                     43                     44                     45
                      A                      A                      A
 Frequencies --    890.6318               917.1522               974.7461
 Red. masses --      1.5018                 3.7370                 1.3685
 Frc consts  --      0.7019                 1.8521                 0.7661
 IR Inten    --      3.1370                24.4138                 2.8760

                     46                     47                     48
                      A                      A                      A
 Frequencies --    988.3955               991.5192              1003.5462
 Red. masses --      1.3961                 2.1525                 1.3454
 Frc consts  --      0.8036                 1.2468                 0.7983
 IR Inten    --      2.2915               154.8811                 8.3375

                     49                     50                     51
                      A                      A                      A
 Frequencies --   1015.3903              1031.6131              1047.3564
 Red. masses --      1.2989                 2.3971                 1.9726
 Frc consts  --      0.7890                 1.5031                 1.2749
 IR Inten    --      0.0871                 1.9967                20.0997

                     52                     53                     54
                      A                      A                      A
 Frequencies --   1062.6351              1078.0759              1084.5446
 Red. masses --      1.6057                 4.1423                 4.4546
 Frc consts  --      1.0683                 2.8365                 3.0871
 IR Inten    --      6.7514                64.4889                62.7596

                     55                     56                     57
                      A                      A                      A
 Frequencies --   1125.3965              1147.6908              1152.3412
 Red. masses --      1.2331                 1.6241                 1.5861
 Frc consts  --      0.9202                 1.2604                 1.2410
 IR Inten    --     23.2960                19.2945               174.9983

                     58                     59                     60
                      A                      A                      A
 Frequencies --   1152.6903              1163.6709              1176.6472
 Red. masses --      1.3434                 1.7131                 1.2481
 Frc consts  --      1.0516                 1.3668                 1.0181
 IR Inten    --     13.3146                20.6407                14.3498

                     61                     62                     63
                      A                      A                      A
 Frequencies --   1182.5334              1202.6315              1213.3368
 Red. masses --      1.2787                 1.8239                 1.4340
 Frc consts  --      1.0535                 1.5543                 1.2439
 IR Inten    --      1.2507                36.3854                16.9501

                     64                     65                     66
                      A                      A                      A
 Frequencies --   1219.8421              1267.0382              1292.4143
 Red. masses --      3.6612                 2.3844                 4.9918
 Frc consts  --      3.2099                 2.2553                 4.9126
 IR Inten    --     51.9373               442.8224               359.8147

                     67                     68                     69
                      A                      A                      A
 Frequencies --   1327.3213              1339.8040              1344.1729
 Red. masses --      1.3453                 6.1707                 2.0168
 Frc consts  --      1.3964                 6.5263                 2.1470
 IR Inten    --     19.3937               300.7403                36.1177

                     70                     71                     72
                      A                      A                      A
 Frequencies --   1353.6924              1377.9983              1415.8158
 Red. masses --      5.0618                 4.1565                 1.3913
 Frc consts  --      5.4651                 4.6502                 1.6432
 IR Inten    --    113.8241                33.0244                 6.0921

                     73                     74                     75
                      A                      A                      A
 Frequencies --   1432.5152              1462.0438              1466.7614
 Red. masses --      2.6383                 1.2258                 3.0122
 Frc consts  --      3.1899                 1.5438                 3.8182
 IR Inten    --    559.8774                 9.9923                 2.3030

                     76                     77                     78
                      A                      A                      A
 Frequencies --   1482.5827              1486.2766              1491.9795
 Red. masses --      1.0530                 1.2113                 1.0574
 Frc consts  --      1.3637                 1.5766                 1.3868
 IR Inten    --     29.7420                54.0974                20.2693

                     79                     80                     81
                      A                      A                      A
 Frequencies --   1492.5395              1497.4054              1499.7724
 Red. masses --      1.5461                 1.0806                 1.2598
 Frc consts  --      2.0293                 1.4276                 1.6696
 IR Inten    --    135.6034                19.1464                 2.8483

                     82                     83                     84
                      A                      A                      A
 Frequencies --   1506.4157              1525.3534              1528.4729
 Red. masses --      1.0741                 2.0486                 3.1110
 Frc consts  --      1.4361                 2.8083                 4.2822
 IR Inten    --     51.7192               101.4873                13.6927

                     85                     86                     87
                      A                      A                      A
 Frequencies --   1548.9073              1559.0158              1655.1620
 Red. masses --      2.5259                 3.1653                 7.4695
 Frc consts  --      3.5704                 4.5328                12.0566
 IR Inten    --    238.4345               104.3608                12.4881

                     88                     89                     90
                      A                      A                      A
 Frequencies --   1662.8839              1673.5542              1686.4140
 Red. masses --      7.1750                 6.1866                 7.1475
 Frc consts  --     11.6896                10.2090                11.9765
 IR Inten    --      2.5974               133.9974                 2.2654

                     91                     92                     93
                      A                      A                      A
 Frequencies --   1785.7624              3038.0055              3059.5537
 Red. masses --     13.1519                 1.0341                 1.0410
 Frc consts  --     24.7108                 5.6233                 5.7416
 IR Inten    --    349.0256                64.2563                19.4712

                     94                     95                     96
                      A                      A                      A
 Frequencies --   3072.0329              3102.9204              3113.9156
 Red. masses --      1.0369                 1.1072                 1.1013
 Frc consts  --      5.7653                 6.2808                 6.2918
 IR Inten    --     64.1137                46.7096                 9.0181

                     97                     98                     99
                      A                      A                      A
 Frequencies --   3134.8630              3167.4017              3181.7072
 Red. masses --      1.1063                 1.1014                 1.0970
 Frc consts  --      6.4055                 6.5102                 6.5429
 IR Inten    --     15.7862                29.9157                 1.6735

                    100                    101                    102
                      A                      A                      A
 Frequencies --   3188.9153              3194.9050              3195.5496
 Red. masses --      1.0866                 1.1004                 1.0886
 Frc consts  --      6.5102                 6.6177                 6.5492
 IR Inten    --      0.8026                 4.6785                 7.8057

                    103                    104                    105
                      A                      A                      A
 Frequencies --   3199.1198              3206.6204              3208.0329
 Red. masses --      1.0903                 1.0891                 1.0947
 Frc consts  --      6.5743                 6.5982                 6.6378
 IR Inten    --      7.2436                 5.3247                29.8410

                    106                    107                    108
                      A                      A                      A
 Frequencies --   3212.9829              3217.9417              3232.2249
 Red. masses --      1.0954                 1.0973                 1.0929
 Frc consts  --      6.6627                 6.6946                 6.7270
 IR Inten    --     20.9023                23.3910                 9.6132

 - Thermochemistry -
 -------------------
 Temperature   298.150 Kelvin.  Pressure   1.00000 Atm.
 Atom     1 has atomic number  6 and mass  12.00000

 Molecular mass:   279.13716 amu.
 Principal axes and moments of inertia in atomic units:
                           1         2         3
     Eigenvalues --  2269.16431********************
           X            0.99999   0.00269   0.00264
           Y           -0.00269   1.00000   0.00120
           Z           -0.00264  -0.00121   1.00000
 This molecule is an asymmetric top.
 Rotational symmetry number  1.
 Warning -- assumption of classical behavior for rotation
           may cause significant error
 Rotational temperatures (Kelvin)      0.03817     0.00641     0.00568
 Rotational constants (GHZ):           0.79533     0.13366     0.11826
    1 imaginary frequencies ignored.
 Zero-point vibrational energy     811133.7 (Joules/Mol)
                                  193.86561 (Kcal/Mol)
 Warning -- explicit consideration of  29 degrees of freedom as
           vibrations may cause significant error
 Vibrational temperatures:     37.76    63.64    67.73   102.44   130.40
          (Kelvin)            168.94   177.41   191.07   210.11   252.16
                              278.45   327.21   364.58   383.88   428.34
                              442.79   467.37   468.06   544.66   635.78
                              648.36   656.96   711.31   721.23   760.08
                              788.55   820.84   864.38   875.33   911.98
                              944.40   994.13  1021.26  1054.97  1099.73
                             1115.79  1148.44  1174.44  1217.65  1222.55
                             1258.67  1281.42  1319.58  1402.44  1422.08
                             1426.57  1443.88  1460.92  1484.26  1506.91
                             1528.89  1551.11  1560.42  1619.19  1651.27
                             1657.96  1658.46  1674.26  1692.93  1701.40
                             1730.32  1745.72  1755.08  1822.99  1859.50
                             1909.72  1927.68  1933.96  1947.66  1982.63
                             2037.04  2061.07  2103.55  2110.34  2133.11
                             2138.42  2146.63  2147.43  2154.43  2157.84
                             2167.40  2194.64  2199.13  2228.53  2243.08
                             2381.41  2392.52  2407.87  2426.37  2569.31
                             4371.01  4402.02  4419.97  4464.41  4480.23
                             4510.37  4557.18  4577.77  4588.14  4596.76
                             4597.68  4602.82  4613.61  4615.64  4622.77
                             4629.90  4650.45

 Zero-point correction=                           0.308945 (Hartree/Particle)
 Thermal correction to Energy=                    0.327225
 Thermal correction to Enthalpy=                  0.328169
 Thermal correction to Gibbs Free Energy=         0.261468
 Sum of electronic and zero-point Energies=           -896.899832
 Sum of electronic and thermal Energies=              -896.881551
 Sum of electronic and thermal Enthalpies=            -896.880607
 Sum of electronic and thermal Free Energies=         -896.947308

                     E (Thermal)             CV                S
                      KCal/Mol        Cal/Mol-Kelvin    Cal/Mol-Kelvin
 Total                  205.337             70.387            140.384
 Electronic               0.000              0.000              0.000
 Translational            0.889              2.981             42.778
 Rotational               0.889              2.981             34.502
 Vibrational            203.559             64.425             63.104
 Vibration     1          0.593              1.985              6.095
 Vibration     2          0.595              1.980              5.060
 Vibration     3          0.595              1.979              4.937
 Vibration     4          0.598              1.968              4.120
 Vibration     5          0.602              1.956              3.646
 Vibration     6          0.608              1.935              3.142
 Vibration     7          0.610              1.930              3.048
 Vibration     8          0.613              1.921              2.905
 Vibration     9          0.617              1.907              2.723
 Vibration    10          0.627              1.873              2.378
 Vibration    11          0.635              1.849              2.194
 Vibration    12          0.651              1.799              1.899
 Vibration    13          0.665              1.757              1.707
 Vibration    14          0.672              1.734              1.617
 Vibration    15          0.691              1.678              1.430
 Vibration    16          0.698              1.659              1.374
 Vibration    17          0.709              1.626              1.286
 Vibration    18          0.709              1.625              1.283
 Vibration    19          0.749              1.516              1.045
 Vibration    20          0.802              1.379              0.821
 Vibration    21          0.809              1.359              0.794
 Vibration    22          0.815              1.346              0.776
 Vibration    23          0.850              1.262              0.672
 Vibration    24          0.857              1.247              0.655
 Vibration    25          0.883              1.187              0.591
 Vibration    26          0.903              1.144              0.548
 Vibration    27          0.927              1.095              0.503
 Vibration    28          0.959              1.030              0.448
 Vibration    29          0.967              1.014              0.435

 Normal termination of Gaussian 16 at Fri Oct  6 15:50:23 2023.
