 Gaussian 16, Revision C.01,
 Gaussian 16:  ES64L-G16RevC.01  3-Jul-2019

 ----------------------------------------------------------------------
 # freq CAM-B3LYP/6-311G(d,p) scrf=(solvent=acetonitrile) empiricaldisp
 ersion=gd3bj
 ----------------------------------------------------------------------

 -
 -
 -
 Symbolic Z-matrix:
 Charge =  0 Multiplicity = 1

                         Standard orientation:
 ---------------------------------------------------------------------
 Center     Atomic      Atomic             Coordinates (Angstroms)
 Number     Number       Type             X           Y           Z
 ---------------------------------------------------------------------
      1          6           0        1.784194    0.629157   -0.170196
      2          6           0        3.167658    0.796889   -0.014039
      3          6           0        3.783335    2.040276   -0.069055
      4          6           0        2.971855    3.140662   -0.294212
      5          6           0        1.590724    2.994427   -0.467070
      6          6           0        0.990206    1.747272   -0.414338
      7          6           0        1.529797   -0.807628   -0.068651
      8          1           0        4.853260    2.151145    0.052459
      9          1           0        3.415280    4.127357   -0.344720
     10          1           0        0.984093    3.872963   -0.650753
     11          1           0       -0.075746    1.640846   -0.568857
     12          6           0        5.165286   -0.656703    0.406908
     13          1           0        5.734955   -0.310937   -0.456482
     14          1           0        5.483841   -0.103111    1.290783
     15          1           0        5.366903   -1.712215    0.561932
     16          6           0        2.792500   -1.410592    0.126540
     17          6           0        3.055845   -2.858268    0.287812
     18          1           0        3.456440   -3.086714    1.278300
     19          1           0        2.116506   -3.393516    0.160779
     20          1           0        3.771910   -3.217184   -0.454534
     21          7           0        0.395063   -1.472121   -0.109596
     22          7           0       -0.668990   -2.114986   -0.180518
     23          6           0       -1.880435   -1.343134   -0.117028
     24          6           0       -3.027185   -1.925364   -0.653445
     25          6           0       -1.981186   -0.107860    0.506074
     26          6           0       -4.237464   -1.263993   -0.611482
     27          1           0       -2.943521   -2.903616   -1.112093
     28          6           0       -3.196377    0.562293    0.570699
     29          1           0       -1.101527    0.324711    0.964758
     30          6           0       -4.329939   -0.011477   -0.000474
     31          1           0       -5.132166   -1.696896   -1.041069
     32          1           0       -3.248592    1.518223    1.072307
     33          8           0       -5.561381    0.559375   -0.000210
     34          6           0       -5.709622    1.833480    0.605434
     35          1           0       -5.082149    2.581986    0.113964
     36          1           0       -6.755529    2.103824    0.483882
     37          1           0       -5.466378    1.797874    1.670847
     38          7           0        3.745114   -0.459516    0.181448
 ---------------------------------------------------------------------

 SCF Done:  E(RCAM-B3LYP) =  -897.211323458     A.U. after   16 cycles

 The electronic state is 1-A.
 Alpha  occ. eigenvalues --  -19.22296 -14.45310 -14.42096 -14.40049 -10.30995
 Alpha  occ. eigenvalues --  -10.30777 -10.29198 -10.28849 -10.28711 -10.28489
 Alpha  occ. eigenvalues --  -10.26075 -10.25392 -10.25173 -10.24961 -10.24852
 Alpha  occ. eigenvalues --  -10.24838 -10.24797 -10.24765 -10.24745 -10.24522
 Alpha  occ. eigenvalues --  -10.24487  -1.15421  -1.10098  -1.08842  -0.95203
 Alpha  occ. eigenvalues --   -0.94486  -0.91904  -0.85936  -0.85632  -0.84012
 Alpha  occ. eigenvalues --   -0.83442  -0.82253  -0.78908  -0.77623  -0.72898
 Alpha  occ. eigenvalues --   -0.70156  -0.69159  -0.67599  -0.65832  -0.63559
 Alpha  occ. eigenvalues --   -0.61860  -0.59649  -0.58119  -0.56489  -0.56035
 Alpha  occ. eigenvalues --   -0.55764  -0.54381  -0.53642  -0.52189  -0.51344
 Alpha  occ. eigenvalues --   -0.51027  -0.50260  -0.49841  -0.49382  -0.48910
 Alpha  occ. eigenvalues --   -0.47990  -0.47508  -0.46938  -0.46553  -0.45878
 Alpha  occ. eigenvalues --   -0.44808  -0.44270  -0.42959  -0.41837  -0.41317
 Alpha  occ. eigenvalues --   -0.40351  -0.39502  -0.38641  -0.34218  -0.31903
 Alpha  occ. eigenvalues --   -0.29379  -0.29043  -0.25387  -0.22652
 Alpha virt. eigenvalues --   -0.02322   0.02288   0.03302   0.05386   0.07134
 Alpha virt. eigenvalues --    0.08307   0.09279   0.10257   0.11358   0.11712
 Alpha virt. eigenvalues --    0.12874   0.14179   0.14282   0.15198   0.15782

 Mulliken charges:
               1
     1  C   -0.092895
     2  C    0.198722
     3  C   -0.075446
     4  C   -0.133764
     5  C   -0.135046
     6  C   -0.080155
     7  C    0.079643
     8  H    0.130079
     9  H    0.119045
    10  H    0.116767
    11  H    0.117420
    12  C   -0.175122
    13  H    0.152717
    14  H    0.151598
    15  H    0.150138
    16  C    0.216596
    17  C   -0.270563
    18  H    0.154143
    19  H    0.144543
    20  H    0.152726
    21  N   -0.311547
    22  N   -0.235088
    23  C    0.008144
    24  C   -0.084146
    25  C   -0.088196
    26  C   -0.117002
    27  H    0.103649
    28  C   -0.158785
    29  H    0.130075
    30  C    0.155258
    31  H    0.119548
    32  H    0.136719
    33  O   -0.353529
    34  C   -0.157929
    35  H    0.126727
    36  H    0.141262
    37  H    0.126812
    38  N   -0.463118
 Sum of Mulliken charges =  -0.00000

 Dipole moment (field-independent basis, Debye):
    X=              6.8430    Y=              2.6923    Z=              1.8608  Tot=              7.5853
 Quadrupole moment (field-independent basis, Debye-Ang):
   XX=            -81.4345   YY=           -115.5336   ZZ=           -125.9564
   XY=            -19.4094   XZ=              0.4283   YZ=              1.7104

  Exact polarizability:     493.769      11.518     331.041      21.851      12.404     147.338
 Approx polarizability:     385.831       8.624     297.767      21.922      12.852     152.980

 ******    1 imaginary frequencies (negative Signs) ******

                      1                      2                      3
                      A                      A                      A
 Frequencies --   -482.6071                29.0501                43.3938
 Red. masses --     13.0130                 4.4874                 4.1493
 Frc consts  --      1.7857                 0.0022                 0.0046
 IR Inten    --     56.2782                 4.8249                 1.0775

                      4                      5                      6
                      A                      A                      A
 Frequencies --     49.5994                86.3609                98.6484
 Red. masses --      3.9775                 1.0985                 3.4982
 Frc consts  --      0.0058                 0.0048                 0.0201
 IR Inten    --      1.1473                 0.1047                 1.3664

                      7                      8                      9
                      A                      A                      A
 Frequencies --    115.2581               130.4470               132.9161
 Red. masses --      3.5204                 4.3664                 3.5050
 Frc consts  --      0.0276                 0.0438                 0.0365
 IR Inten    --      0.4701                 1.2821                 4.8988

                     10                     11                     12
                      A                      A                      A
 Frequencies --    147.4026               176.0876               186.8072
 Red. masses --      2.8738                 1.1833                 3.2225
 Frc consts  --      0.0368                 0.0216                 0.0663
 IR Inten    --      2.7037                 0.6651                 5.8642

                     13                     14                     15
                      A                      A                      A
 Frequencies --    220.3579               252.0258               265.6315
 Red. masses --      3.8928                 1.6493                 2.0182
 Frc consts  --      0.1114                 0.0617                 0.0839
 IR Inten    --      7.6732                 0.4359                 2.6045

                     16                     17                     18
                      A                      A                      A
 Frequencies --    299.7607               300.6172               318.6294
 Red. masses --      4.3010                 2.9412                 4.4397
 Frc consts  --      0.2277                 0.1566                 0.2656
 IR Inten    --      2.9237                 3.1103                 2.8406

                     19                     20                     21
                      A                      A                      A
 Frequencies --    327.0599               395.8889               441.2932
 Red. masses --      4.1416                 6.2456                 3.1367
 Frc consts  --      0.2610                 0.5767                 0.3599
 IR Inten    --      2.4492                13.7305                 0.6686

                     22                     23                     24
                      A                      A                      A
 Frequencies --    454.1157               463.9102               474.1460
 Red. masses --      3.2472                 4.8264                 7.7852
 Frc consts  --      0.3945                 0.6120                 1.0312
 IR Inten    --     19.9597                11.6762                 5.5878

                     25                     26                     27
                      A                      A                      A
 Frequencies --    497.5671               527.4158               545.7584
 Red. masses --      5.4137                 4.3060                 2.8260
 Frc consts  --      0.7897                 0.7057                 0.4959
 IR Inten    --      7.2935                35.2997                31.9906

                     28                     29                     30
                      A                      A                      A
 Frequencies --    569.8252               603.7613               605.4634
 Red. masses --      5.0369                 4.7566                 3.8281
 Frc consts  --      0.9636                 1.0216                 0.8268
 IR Inten    --     13.5096                 8.5186                 0.8580

                     31                     32                     33
                      A                      A                      A
 Frequencies --    628.7154               656.5568               695.4023
 Red. masses --      4.4393                 6.7030                 3.6486
 Frc consts  --      1.0339                 1.7024                 1.0396
 IR Inten    --     13.3052                 2.5410                 7.0726

                     34                     35                     36
                      A                      A                      A
 Frequencies --    716.4974               733.1150               763.9736
 Red. masses --      5.3964                 4.6133                 3.9925
 Frc consts  --      1.6322                 1.4609                 1.3729
 IR Inten    --      2.5691                18.6437                 8.4183

                     37                     38                     39
                      A                      A                      A
 Frequencies --    776.3411               797.7465               808.8284
 Red. masses --      1.3769                 4.2536                 4.1570
 Frc consts  --      0.4890                 1.5949                 1.6023
 IR Inten    --     97.8279                 3.4819                 4.3019

                     40                     41                     42
                      A                      A                      A
 Frequencies --    846.2539               852.4301               872.6384
 Red. masses --      1.2587                 5.3937                 1.7803
 Frc consts  --      0.5311                 2.3092                 0.7987
 IR Inten    --      5.9671                17.0201               123.7451

                     43                     44                     45
                      A                      A                      A
 Frequencies --    892.6900               918.9286               975.7696
 Red. masses --      1.4710                 3.5798                 1.3702
 Frc consts  --      0.6906                 1.7810                 0.7687
 IR Inten    --      2.6662                12.8125                 3.3876

                     46                     47                     48
                      A                      A                      A
 Frequencies --    988.9729               997.1474              1004.1126
 Red. masses --      1.4727                 1.9131                 1.3591
 Frc consts  --      0.8487                 1.1207                 0.8074
 IR Inten    --     12.1735               120.8073                10.8918

                     49                     50                     51
                      A                      A                      A
 Frequencies --   1016.9408              1031.3749              1054.5436
 Red. masses --      1.3101                 2.3258                 1.9773
 Frc consts  --      0.7983                 1.4577                 1.2956
 IR Inten    --      0.5057                 0.3288                12.4334

                     52                     53                     54
                      A                      A                      A
 Frequencies --   1063.7318              1076.1764              1084.0505
 Red. masses --      1.6045                 4.1681                 5.2504
 Frc consts  --      1.0697                 2.8441                 3.6353
 IR Inten    --      5.4349                56.2478                74.2180

                     55                     56                     57
                      A                      A                      A
 Frequencies --   1124.6884              1150.1535              1153.6644
 Red. masses --      1.2253                 1.8377                 1.3310
 Frc consts  --      0.9132                 1.4323                 1.0437
 IR Inten    --     26.5624                54.3238                 3.3547

                     58                     59                     60
                      A                      A                      A
 Frequencies --   1155.6944              1163.4951              1178.1678
 Red. masses --      1.5410                 1.6247                 1.2594
 Frc consts  --      1.2127                 1.2959                 1.0299
 IR Inten    --    129.6587                22.6536                 9.3330

                     61                     62                     63
                      A                      A                      A
 Frequencies --   1182.6423              1202.9127              1212.7439
 Red. masses --      1.2784                 1.9180                 1.9734
 Frc consts  --      1.0535                 1.6352                 1.7100
 IR Inten    --      1.2746                52.4285                19.6805

                     64                     65                     66
                      A                      A                      A
 Frequencies --   1213.9520              1270.4158              1293.1515
 Red. masses --      1.9807                 2.4347                 4.7674
 Frc consts  --      1.7198                 2.3152                 4.6971
 IR Inten    --     41.3105               487.7199               344.5249

                     67                     68                     69
                      A                      A                      A
 Frequencies --   1326.4662              1336.9543              1346.1456
 Red. masses --      1.3544                 6.1721                 1.9109
 Frc consts  --      1.4041                 6.5001                 2.0402
 IR Inten    --      8.8095               245.5920               127.3110

                     70                     71                     72
                      A                      A                      A
 Frequencies --   1354.2322              1374.6800              1410.0379
 Red. masses --      5.6399                 3.9170                 1.4669
 Frc consts  --      6.0940                 4.3613                 1.7183
 IR Inten    --     53.2656                50.0776                 0.2414

                     73                     74                     75
                      A                      A                      A
 Frequencies --   1434.6399              1462.7432              1467.8436
 Red. masses --      2.3361                 1.1690                 3.3164
 Frc consts  --      2.8329                 1.4737                 4.2100
 IR Inten    --    671.3257                23.0853                 1.5972

                     76                     77                     78
                      A                      A                      A
 Frequencies --   1478.8183              1486.5436              1491.5875
 Red. masses --      1.0448                 1.2225                 1.5212
 Frc consts  --      1.3462                 1.5917                 1.9940
 IR Inten    --     31.2953                48.8687               103.1104

                     79                     80                     81
                      A                      A                      A
 Frequencies --   1492.0719              1493.1398              1500.8707
 Red. masses --      1.0708                 1.0420                 1.2850
 Frc consts  --      1.4045                 1.3687                 1.7054
 IR Inten    --     28.6892                 3.8294                 0.0966

                     82                     83                     84
                      A                      A                      A
 Frequencies --   1506.4422              1523.8385              1527.6358
 Red. masses --      1.0742                 2.1073                 3.0797
 Frc consts  --      1.4363                 2.8831                 4.2345
 IR Inten    --     69.6123               212.2275                27.1641

                     85                     86                     87
                      A                      A                      A
 Frequencies --   1547.9850              1569.5324              1657.0804
 Red. masses --      2.5237                 3.6852                 7.4819
 Frc consts  --      3.5631                 5.3487                12.1045
 IR Inten    --    223.0352               137.5772                 7.1500

                     88                     89                     90
                      A                      A                      A
 Frequencies --   1659.5848              1673.5980              1685.7911
 Red. masses --      7.0010                 6.1926                 7.0582
 Frc consts  --     11.3609                10.2195                11.8182
 IR Inten    --     10.8702               115.2560                 6.4321

                     91                     92                     93
                      A                      A                      A
 Frequencies --   1789.0320              3038.0158              3059.0969
 Red. masses --     13.1393                 1.0341                 1.0383
 Frc consts  --     24.7776                 5.6231                 5.7247
 IR Inten    --    386.2267                64.5185                24.2306

                     94                     95                     96
                      A                      A                      A
 Frequencies --   3072.9449              3102.7822              3117.6150
 Red. masses --      1.0363                 1.1072                 1.1012
 Frc consts  --      5.7655                 6.2801                 6.3063
 IR Inten    --     68.9247                47.0108                 9.6157

                     97                     98                     99
                      A                      A                      A
 Frequencies --   3136.8439              3159.7107              3166.9017
 Red. masses --      1.1063                 1.1007                 1.1014
 Frc consts  --      6.4139                 6.4744                 6.5084
 IR Inten    --     14.9050                 4.5120                30.0796

                    100                    101                    102
                      A                      A                      A
 Frequencies --   3191.3012              3192.0108              3195.2505
 Red. masses --      1.0874                 1.1008                 1.0884
 Frc consts  --      6.5250                 6.6083                 6.5473
 IR Inten    --      1.7796                 6.4435                 8.4912

                    103                    104                    105
                      A                      A                      A
 Frequencies --   3203.6883              3210.8048              3212.5173
 Red. masses --      1.0903                 1.0907                 1.0953
 Frc consts  --      6.5931                 6.6249                 6.6600
 IR Inten    --     11.9060                20.1715                18.1753

                    106                    107                    108
                      A                      A                      A
 Frequencies --   3216.3329              3220.1410              3231.2584
 Red. masses --      1.0929                 1.0959                 1.0933
 Frc consts  --      6.6613                 6.6955                 6.7257
 IR Inten    --     11.3939                14.1962                10.8780

 - Thermochemistry -
 -------------------
 Temperature   298.150 Kelvin.  Pressure   1.00000 Atm.
 Atom     1 has atomic number  6 and mass  12.00000

 Molecular mass:   279.13716 amu.
 Principal axes and moments of inertia in atomic units:
                           1         2         3
     Eigenvalues --  2986.71614********************
           X            0.99987  -0.01587   0.00000
           Y            0.01587   0.99987   0.00337
           Z           -0.00006  -0.00337   0.99999
 This molecule is an asymmetric top.
 Rotational symmetry number  1.
 Warning -- assumption of classical behavior for rotation
           may cause significant error
 Rotational temperatures (Kelvin)      0.02900     0.00749     0.00608
 Rotational constants (GHZ):           0.60426     0.15601     0.12674
    1 imaginary frequencies ignored.
 Zero-point vibrational energy     811297.4 (Joules/Mol)
                                  193.90473 (Kcal/Mol)
 Warning -- explicit consideration of  29 degrees of freedom as
           vibrations may cause significant error
 Vibrational temperatures:     41.80    62.43    71.36   124.25   141.93
          (Kelvin)            165.83   187.68   191.24   212.08   253.35
                              268.77   317.05   362.61   382.18   431.29
                              432.52   458.44   470.57   569.60   634.92
                              653.37   667.46   682.19   715.89   758.83
                              785.22   819.85   868.68   871.13   904.58
                              944.64  1000.53  1030.88  1054.79  1099.19
                             1116.98  1147.78  1163.72  1217.57  1226.46
                             1255.53  1284.38  1322.13  1403.91  1422.91
                             1434.67  1444.69  1463.15  1483.92  1517.25
                             1530.47  1548.38  1559.71  1618.18  1654.81
                             1659.87  1662.79  1674.01  1695.12  1701.56
                             1730.72  1744.87  1746.61  1827.85  1860.56
                             1908.49  1923.58  1936.80  1948.44  1977.86
                             2028.73  2064.13  2104.56  2111.90  2127.69
                             2138.80  2146.06  2146.76  2148.30  2159.42
                             2167.43  2192.46  2197.93  2227.21  2258.21
                             2384.17  2387.77  2407.93  2425.48  2574.02
                             4371.03  4401.36  4421.28  4464.21  4485.55
                             4513.22  4546.12  4556.47  4591.57  4592.59
                             4597.25  4609.39  4619.63  4622.10  4627.59
                             4633.06  4649.06

 Zero-point correction=                           0.309007 (Hartree/Particle)
 Thermal correction to Energy=                    0.327247
 Thermal correction to Enthalpy=                  0.328192
 Thermal correction to Gibbs Free Energy=         0.261825
 Sum of electronic and zero-point Energies=           -896.902317
 Sum of electronic and thermal Energies=              -896.884076
 Sum of electronic and thermal Enthalpies=            -896.883132
 Sum of electronic and thermal Free Energies=         -896.949498

                     E (Thermal)             CV                S
                      KCal/Mol        Cal/Mol-Kelvin    Cal/Mol-Kelvin
 Total                  205.351             70.387            139.679
 Electronic               0.000              0.000              0.000
 Translational            0.889              2.981             42.778
 Rotational               0.889              2.981             34.552
 Vibrational            203.573             64.425             62.349
 Vibration     1          0.593              1.984              5.893
 Vibration     2          0.595              1.980              5.098
 Vibration     3          0.595              1.978              4.833
 Vibration     4          0.601              1.959              3.741
 Vibration     5          0.604              1.950              3.481
 Vibration     6          0.608              1.937              3.178
 Vibration     7          0.612              1.923              2.939
 Vibration     8          0.613              1.920              2.903
 Vibration     9          0.617              1.905              2.705
 Vibration    10          0.628              1.872              2.369
 Vibration    11          0.632              1.858              2.259
 Vibration    12          0.647              1.810              1.956
 Vibration    13          0.664              1.759              1.716
 Vibration    14          0.671              1.736              1.624
 Vibration    15          0.692              1.674              1.418
 Vibration    16          0.693              1.673              1.413
 Vibration    17          0.705              1.638              1.317
 Vibration    18          0.711              1.621              1.275
 Vibration    19          0.763              1.479              0.978
 Vibration    20          0.801              1.380              0.823
 Vibration    21          0.813              1.352              0.783
 Vibration    22          0.821              1.330              0.755
 Vibration    23          0.831              1.307              0.726
 Vibration    24          0.853              1.255              0.664
 Vibration    25          0.882              1.189              0.593
 Vibration    26          0.901              1.149              0.553
 Vibration    27          0.926              1.097              0.505
 Vibration    28          0.962              1.024              0.443
 Vibration    29          0.964              1.020              0.440

 Optimization completed.
    -- Stationary point found.
 Normal termination of Gaussian 16 at Fri Oct  6 15:56:53 2023.
