 Gaussian 16, Revision C.01,
 Gaussian 16:  ES64L-G16RevC.01  3-Jul-2019

 ----------------------------------------------------------------------
 # freq CAM-B3LYP/6-311G(d,p) scrf=(solvent=acetonitrile) empiricaldisp
 ersion=gd3bj
 ----------------------------------------------------------------------

 -
 -
 -
 Symbolic Z-matrix:
 Charge =  0 Multiplicity = 1

                         Standard orientation:
 ---------------------------------------------------------------------
 Center     Atomic      Atomic             Coordinates (Angstroms)
 Number     Number       Type             X           Y           Z
 ---------------------------------------------------------------------
      1          6           0        1.664063    0.542375    0.338591
      2          6           0        2.941630    0.850095   -0.146791
      3          6           0        3.382894    2.147106   -0.333143
      4          6           0        2.496299    3.165277   -0.007023
      5          6           0        1.221013    2.882022    0.482721
      6          6           0        0.787937    1.574430    0.657940
      7          6           0        1.603630   -0.909392    0.383697
      8          1           0        4.371420    2.367310   -0.713778
      9          1           0        2.802060    4.195555   -0.137837
     10          1           0        0.553763    3.699589    0.725633
     11          1           0       -0.205999    1.362361    1.024146
     12          6           0        4.989452   -0.401511   -0.903528
     13          1           0        5.027277    0.087219   -1.876701
     14          1           0        5.662113    0.108683   -0.214647
     15          1           0        5.304976   -1.434229   -1.010660
     16          6           0        2.861933   -1.394242   -0.068284
     17          6           0        3.276774   -2.809973   -0.182673
     18          1           0        4.158220   -3.007582    0.430613
     19          1           0        2.459295   -3.442837    0.151826
     20          1           0        3.521744   -3.061363   -1.216751
     21          7           0        0.647135   -1.756801    0.743772
     22          7           0       -0.435925   -1.270549    1.242761
     23          6           0       -1.592643   -0.902998    0.670730
     24          6           0       -1.796174   -0.976148   -0.731187
     25          6           0       -2.662875   -0.407730    1.443862
     26          6           0       -2.998062   -0.592748   -1.295082
     27          1           0       -0.993777   -1.338361   -1.362218
     28          6           0       -3.861846   -0.023064    0.860553
     29          1           0       -2.538493   -0.332695    2.517290
     30          6           0       -4.045112   -0.112544   -0.515415
     31          1           0       -3.141043   -0.657996   -2.367971
     32          1           0       -4.649908    0.348671    1.501853
     33          8           0       -5.195439    0.244271   -1.183006
     34          6           0       -6.267088    0.739113   -0.409301
     35          1           0       -5.991368    1.655199    0.124032
     36          1           0       -7.072098    0.961867   -1.106717
     37          1           0       -6.617264   -0.002077    0.317082
     38          7           0        3.631882   -0.356064   -0.385841
 ---------------------------------------------------------------------

 SCF Done:  E(RCAM-B3LYP) =  -897.209947945     A.U. after   18 cycles

 The electronic state is 1-A.
 Alpha  occ. eigenvalues --  -19.20475 -14.47642 -14.45497 -14.37451 -10.33756
 Alpha  occ. eigenvalues --  -10.30048 -10.29591 -10.28515 -10.28423 -10.28357
 Alpha  occ. eigenvalues --  -10.27994 -10.26630 -10.26416 -10.26145 -10.25828
 Alpha  occ. eigenvalues --  -10.25786 -10.25371 -10.23577 -10.23424 -10.22830
 Alpha  occ. eigenvalues --  -10.22554  -1.13334  -1.12175  -1.09823  -0.95887
 Alpha  occ. eigenvalues --   -0.94750  -0.91538  -0.87269  -0.86828  -0.84507
 Alpha  occ. eigenvalues --   -0.82322  -0.80697  -0.80116  -0.77098  -0.73378
 Alpha  occ. eigenvalues --   -0.70649  -0.68979  -0.68097  -0.65886  -0.63925
 Alpha  occ. eigenvalues --   -0.61525  -0.59070  -0.58871  -0.57595  -0.56761
 Alpha  occ. eigenvalues --   -0.55280  -0.54629  -0.53153  -0.52827  -0.52287
 Alpha  occ. eigenvalues --   -0.50968  -0.50646  -0.50124  -0.49258  -0.48596
 Alpha  occ. eigenvalues --   -0.48261  -0.47663  -0.47514  -0.46552  -0.45439
 Alpha  occ. eigenvalues --   -0.44574  -0.44303  -0.43143  -0.41954  -0.41718
 Alpha  occ. eigenvalues --   -0.40988  -0.38349  -0.37634  -0.34451  -0.30856
 Alpha  occ. eigenvalues --   -0.30660  -0.30528  -0.28208  -0.19859
 Alpha virt. eigenvalues --   -0.05949   0.01168   0.04119   0.04885   0.07886
 Alpha virt. eigenvalues --    0.08592   0.09620   0.09958   0.11135   0.11853
 Alpha virt. eigenvalues --    0.12265   0.12668   0.13816   0.14981   0.15270

 Mulliken charges:
               1
     1  C   -0.044337
     2  C    0.196500
     3  C   -0.063204
     4  C   -0.117122
     5  C   -0.125576
     6  C   -0.057849
     7  C   -0.085866
     8  H    0.139352
     9  H    0.127688
    10  H    0.124704
    11  H    0.138937
    12  C   -0.176548
    13  H    0.163641
    14  H    0.163950
    15  H    0.157656
    16  C    0.278418
    17  C   -0.262086
    18  H    0.165557
    19  H    0.144466
    20  H    0.165922
    21  N   -0.102276
    22  N   -0.348925
    23  C    0.091445
    24  C   -0.166828
    25  C   -0.150792
    26  C   -0.113960
    27  H    0.102470
    28  C   -0.150223
    29  H    0.096957
    30  C    0.103956
    31  H    0.106731
    32  H    0.124581
    33  O   -0.374907
    34  C   -0.152251
    35  H    0.113974
    36  H    0.132215
    37  H    0.114142
    38  N   -0.460511
 Sum of Mulliken charges =  -0.00000

 Dipole moment (field-independent basis, Debye):
    X=             12.4932    Y=              1.8521    Z=             -2.1257  Tot=             12.8074
 Quadrupole moment (field-independent basis, Debye-Ang):
   XX=            -74.4234   YY=           -116.6152   ZZ=           -126.4563
   XY=            -14.3073   XZ=            -16.0030   YZ=              5.6299

  Exact polarizability:     481.957      -9.747     282.734     -47.568      -1.449     213.402
 Approx polarizability:     357.081     -12.526     259.092     -39.905      -5.733     220.635

 ******    1 imaginary frequencies (negative Signs) ******

                      1                      2                      3
                      A                      A                      A
 Frequencies --   -853.2962                27.2716                33.4677
 Red. masses --     12.8075                 4.7249                 4.2447
 Frc consts  --      5.4943                 0.0021                 0.0028
 IR Inten    --    109.4186                11.8197                 2.0881

                      4                      5                      6
                      A                      A                      A
 Frequencies --     44.8329                71.0378                89.0284
 Red. masses --      3.6671                 3.6193                 1.4473
 Frc consts  --      0.0043                 0.0108                 0.0068
 IR Inten    --      1.2307                 5.4826                 8.8597

                      7                      8                      9
                      A                      A                      A
 Frequencies --    103.8592               121.2252               136.8859
 Red. masses --      2.0142                 5.1245                 2.5113
 Frc consts  --      0.0128                 0.0444                 0.0277
 IR Inten    --     15.9132                 2.6315                14.8872

                     10                     11                     12
                      A                      A                      A
 Frequencies --    150.2187               173.3283               193.6950
 Red. masses --      2.8730                 1.3202                 3.4448
 Frc consts  --      0.0382                 0.0234                 0.0761
 IR Inten    --      2.8228                 0.3981                19.6322

                     13                     14                     15
                      A                      A                      A
 Frequencies --    233.8607               254.9656               263.2648
 Red. masses --      2.6499                 3.2688                 1.5226
 Frc consts  --      0.0854                 0.1252                 0.0622
 IR Inten    --      4.4320                15.4726                11.4071

                     16                     17                     18
                      A                      A                      A
 Frequencies --    302.5360               313.1674               334.1106
 Red. masses --      3.3295                 3.1572                 4.3403
 Frc consts  --      0.1795                 0.1824                 0.2855
 IR Inten    --     36.0546                 5.8047                 0.8122

                     19                     20                     21
                      A                      A                      A
 Frequencies --    341.1593               382.6204               409.3752
 Red. masses --      4.0584                 5.8417                 5.4804
 Frc consts  --      0.2783                 0.5039                 0.5411
 IR Inten    --      9.2557               245.3757               150.3088

                     22                     23                     24
                      A                      A                      A
 Frequencies --    432.4516               452.5974               487.3309
 Red. masses --      3.2379                 3.2437                 4.2662
 Frc consts  --      0.3568                 0.3915                 0.5970
 IR Inten    --      1.6428                16.0448               168.8665

                     25                     26                     27
                      A                      A                      A
 Frequencies --    500.8130               509.0209               527.4042
 Red. masses --      4.2799                 3.8548                 4.3548
 Frc consts  --      0.6325                 0.5885                 0.7137
 IR Inten    --     54.1810               217.7941               282.6073

                     28                     29                     30
                      A                      A                      A
 Frequencies --    568.1824               582.9889               606.9469
 Red. masses --      5.0079                 6.1861                 3.7643
 Frc consts  --      0.9525                 1.2388                 0.8170
 IR Inten    --     29.2885                 8.5823                14.8701

                     31                     32                     33
                      A                      A                      A
 Frequencies --    655.3019               660.9027               685.9436
 Red. masses --      4.5172                 5.9106                 3.5595
 Frc consts  --      1.1429                 1.5211                 0.9868
 IR Inten    --     40.6749               122.2087                 5.9995

                     34                     35                     36
                      A                      A                      A
 Frequencies --    710.7457               728.4653               747.4679
 Red. masses --      3.6676                 5.3421                 4.7239
 Frc consts  --      1.0916                 1.6702                 1.5550
 IR Inten    --     11.8584                55.3774                81.4446

                     37                     38                     39
                      A                      A                      A
 Frequencies --    781.3656               797.3890               808.1354
 Red. masses --      1.3523                 3.8546                 1.3691
 Frc consts  --      0.4864                 1.4440                 0.5268
 IR Inten    --     92.8682                 7.8098                 8.2163

                     40                     41                     42
                      A                      A                      A
 Frequencies --    813.3949               822.5988               846.1372
 Red. masses --      2.6665                 2.2055                 5.3422
 Frc consts  --      1.0394                 0.8793                 2.2535
 IR Inten    --     23.4896                99.5808               163.4663

                     43                     44                     45
                      A                      A                      A
 Frequencies --    899.3542               942.7990               945.3256
 Red. masses --      1.4574                 1.3562                 2.9234
 Frc consts  --      0.6945                 0.7103                 1.5392
 IR Inten    --      2.0834                 1.8552               109.7396

                     46                     47                     48
                      A                      A                      A
 Frequencies --    960.3855               981.3429              1018.2650
 Red. masses --      1.3042                 1.3782                 2.6180
 Frc consts  --      0.7087                 0.7820                 1.5994
 IR Inten    --      0.1034                 2.8395                12.2048

                     49                     50                     51
                      A                      A                      A
 Frequencies --   1026.0464              1045.5488              1061.0730
 Red. masses --      1.3174                 2.3239                 2.0022
 Frc consts  --      0.8172                 1.4968                 1.3282
 IR Inten    --      0.1054                29.9244                 1.9034

                     52                     53                     54
                      A                      A                      A
 Frequencies --   1064.9614              1089.6842              1093.4457
 Red. masses --      1.6131                 4.4493                 3.9749
 Frc consts  --      1.0779                 3.1127                 2.8000
 IR Inten    --     14.9713               251.9750                68.9045

                     55                     56                     57
                      A                      A                      A
 Frequencies --   1127.2190              1151.7658              1154.2839
 Red. masses --      1.3531                 1.8184                 1.3632
 Frc consts  --      1.0130                 1.4212                 1.0701
 IR Inten    --    209.9940               231.3540                15.8281

                     58                     59                     60
                      A                      A                      A
 Frequencies --   1162.1165              1183.3440              1184.6249
 Red. masses --      1.5709                 1.2806                 1.2141
 Frc consts  --      1.2500                 1.0565                 1.0039
 IR Inten    --      1.5588                 1.7360                 6.5779

                     61                     62                     63
                      A                      A                      A
 Frequencies --   1190.3036              1207.3573              1211.2691
 Red. masses --      1.2687                 2.4903                 1.4802
 Frc consts  --      1.0591                 2.1389                 1.2795
 IR Inten    --     14.0915                83.3650                47.3375

                     64                     65                     66
                      A                      A                      A
 Frequencies --   1229.9824              1261.2754              1292.9340
 Red. masses --      3.7661                 3.9553                 2.9919
 Frc consts  --      3.3569                 3.7073                 2.9468
 IR Inten    --    227.8744              1218.0540               263.1846

                     67                     68                     69
                      A                      A                      A
 Frequencies --   1309.3934              1331.7435              1349.0620
 Red. masses --      4.8551                 1.4425                 1.8879
 Frc consts  --      4.9044                 1.5073                 2.0244
 IR Inten    --     90.3149               127.2883               205.8073

                     70                     71                     72
                      A                      A                      A
 Frequencies --   1367.1386              1410.8686              1424.3402
 Red. masses --      4.4045                 1.3276                 2.8495
 Frc consts  --      4.8503                 1.5570                 3.4060
 IR Inten    --    388.1156               114.3676              1750.0804

                     73                     74                     75
                      A                      A                      A
 Frequencies --   1455.7892              1463.4759              1478.3106
 Red. masses --      1.3857                 1.8439                 1.0472
 Frc consts  --      1.7303                 2.3268                 1.3484
 IR Inten    --     66.1063                24.1683                33.8561

                     76                     77                     78
                      A                      A                      A
 Frequencies --   1482.1410              1487.2973              1487.8194
 Red. masses --      1.4960                 1.5440                 1.0428
 Frc consts  --      1.9363                 2.0124                 1.3600
 IR Inten    --    163.0666               151.0452                11.2332

                     79                     80                     81
                      A                      A                      A
 Frequencies --   1492.1876              1497.0037              1501.7996
 Red. masses --      1.0486                 2.0804                 1.5963
 Frc consts  --      1.3756                 2.7469                 2.1212
 IR Inten    --     10.7805               731.2414               215.1456

                     82                     83                     84
                      A                      A                      A
 Frequencies --   1507.6360              1517.2870              1522.6022
 Red. masses --      1.1495                 1.9930                 1.9704
 Frc consts  --      1.5394                 2.7033                 2.6914
 IR Inten    --     79.9325               122.1618               254.5904

                     85                     86                     87
                      A                      A                      A
 Frequencies --   1542.9608              1600.9711              1614.8186
 Red. masses --      4.1050                 5.4655                 6.6776
 Frc consts  --      5.7580                 8.2537                10.2593
 IR Inten    --     83.4105               290.9921                49.7000

                     88                     89                     90
                      A                      A                      A
 Frequencies --   1631.4560              1667.8847              1689.8873
 Red. masses --      8.0151                 7.0046                 6.9607
 Frc consts  --     12.5693                11.4806                11.7116
 IR Inten    --    603.6784                 6.0225               146.8320

                     91                     92                     93
                      A                      A                      A
 Frequencies --   1693.4493              3018.6947              3066.9934
 Red. masses --      7.1858                 1.0351                 1.0391
 Frc consts  --     12.1415                 5.5576                 5.7587
 IR Inten    --    109.7587               104.8178                 5.8221

                     94                     95                     96
                      A                      A                      A
 Frequencies --   3074.1779              3082.9685              3126.7543
 Red. masses --      1.1061                 1.0354                 1.1014
 Frc consts  --      6.1589                 5.7984                 6.3443
 IR Inten    --     68.9520                34.9894                 3.5815

                     97                     98                     99
                      A                      A                      A
 Frequencies --   3151.2114              3152.3999              3181.5907
 Red. masses --      1.0995                 1.1067                 1.1001
 Frc consts  --      6.4328                 6.4798                 6.5610
 IR Inten    --     39.3916                 7.3534                 2.0074

                    100                    101                    102
                      A                      A                      A
 Frequencies --   3184.8121              3193.1287              3199.2803
 Red. masses --      1.0876                 1.0889                 1.0883
 Frc consts  --      6.4995                 6.5416                 6.5631
 IR Inten    --     27.3345                18.0743                 2.6832

                    103                    104                    105
                      A                      A                      A
 Frequencies --   3200.4262              3202.6089              3212.0489
 Red. masses --      1.1024                 1.0945                 1.0923
 Frc consts  --      6.6527                 6.6144                 6.6398
 IR Inten    --      4.0916                11.2717                14.1715

                    106                    107                    108
                      A                      A                      A
 Frequencies --   3218.3884              3224.3073              3241.2433
 Red. masses --      1.0928                 1.0967                 1.0946
 Frc consts  --      6.6689                 6.7174                 6.7752
 IR Inten    --     19.1741                 8.9592                 5.7284

 - Thermochemistry -
 -------------------
 Temperature   298.150 Kelvin.  Pressure   1.00000 Atm.
 Atom     1 has atomic number  6 and mass  12.00000

 Molecular mass:   279.13716 amu.
 Principal axes and moments of inertia in atomic units:
                           1         2         3
     Eigenvalues --  2860.17492********************
           X            0.99990  -0.01185  -0.00759
           Y            0.01197   0.99980   0.01616
           Z            0.00739  -0.01624   0.99984
 This molecule is an asymmetric top.
 Rotational symmetry number  1.
 Warning -- assumption of classical behavior for rotation
           may cause significant error
 Rotational temperatures (Kelvin)      0.03028     0.00768     0.00671
 Rotational constants (GHZ):           0.63099     0.16000     0.13990
    1 imaginary frequencies ignored.
 Zero-point vibrational energy     810162.3 (Joules/Mol)
                                  193.63344 (Kcal/Mol)
 Warning -- explicit consideration of  29 degrees of freedom as
           vibrations may cause significant error
 Vibrational temperatures:     39.24    48.15    64.50   102.21   128.09
          (Kelvin)            149.43   174.42   196.95   216.13   249.38
                              278.68   336.47   366.84   378.78   435.28
                              450.58   480.71   490.85   550.51   589.00
                              622.20   651.19   701.16   720.56   732.37
                              758.82   817.49   838.79   873.26   942.83
                              950.89   986.92  1022.60  1048.10  1075.44
                             1124.21  1147.26  1162.73  1170.29  1183.54
                             1217.40  1293.97  1356.48  1360.11  1381.78
                             1411.93  1465.06  1476.25  1504.31  1526.65
                             1532.24  1567.81  1573.22  1621.82  1657.13
                             1660.76  1672.03  1702.57  1704.41  1712.58
                             1737.12  1742.75  1769.67  1814.69  1860.24
                             1883.93  1916.08  1941.00  1967.01  2029.93
                             2049.31  2094.56  2105.62  2126.96  2132.47
                             2139.89  2140.64  2146.93  2153.85  2160.75
                             2169.15  2183.04  2190.69  2219.98  2303.44
                             2323.36  2347.30  2399.71  2431.37  2436.50
                             4343.23  4412.72  4423.06  4435.70  4498.70
                             4533.89  4535.60  4577.60  4582.23  4594.20
                             4603.05  4604.70  4607.84  4621.42  4630.54
                             4639.06  4663.43

 Zero-point correction=                           0.308575 (Hartree/Particle)
 Thermal correction to Energy=                    0.326953
 Thermal correction to Enthalpy=                  0.327897
 Thermal correction to Gibbs Free Energy=         0.260818
 Sum of electronic and zero-point Energies=           -896.901373
 Sum of electronic and thermal Energies=              -896.882995
 Sum of electronic and thermal Enthalpies=            -896.882051
 Sum of electronic and thermal Free Energies=         -896.949130

                     E (Thermal)             CV                S
                      KCal/Mol        Cal/Mol-Kelvin    Cal/Mol-Kelvin
 Total                  205.166             70.634            141.179
 Electronic               0.000              0.000              0.000
 Translational            0.889              2.981             42.778
 Rotational               0.889              2.981             34.386
 Vibrational            203.388             64.673             64.015
 Vibration     1          0.593              1.984              6.019
 Vibration     2          0.594              1.983              5.612
 Vibration     3          0.595              1.979              5.033
 Vibration     4          0.598              1.968              4.124
 Vibration     5          0.602              1.957              3.681
 Vibration     6          0.605              1.946              3.381
 Vibration     7          0.609              1.931              3.081
 Vibration     8          0.614              1.916              2.847
 Vibration     9          0.618              1.902              2.669
 Vibration    10          0.627              1.875              2.399
 Vibration    11          0.635              1.849              2.192
 Vibration    12          0.654              1.789              1.849
 Vibration    13          0.665              1.754              1.696
 Vibration    14          0.670              1.740              1.640
 Vibration    15          0.694              1.669              1.403
 Vibration    16          0.701              1.649              1.346
 Vibration    17          0.716              1.607              1.240
 Vibration    18          0.721              1.593              1.207
 Vibration    19          0.752              1.507              1.029
 Vibration    20          0.774              1.450              0.929
 Vibration    21          0.793              1.400              0.851
 Vibration    22          0.811              1.355              0.788
 Vibration    23          0.843              1.278              0.691
 Vibration    24          0.856              1.248              0.656
 Vibration    25          0.864              1.230              0.636
 Vibration    26          0.882              1.189              0.593
 Vibration    27          0.924              1.100              0.508
 Vibration    28          0.940              1.068              0.480
 Vibration    29          0.966              1.017              0.438

 Optimization completed.
    -- Stationary point found.
 Normal termination of Gaussian 16 at Fri Oct  6 15:57:41 2023.
