 Gaussian 16, Revision C.01,
 Gaussian 16:  ES64L-G16RevC.01  3-Jul-2019

 ----------------------------------------------------------------------
 # freq CAM-B3LYP/6-311G(d,p) scrf=(solvent=acetonitrile) empiricaldisp
 ersion=gd3bj
 ----------------------------------------------------------------------

 -
 -
 -
 Symbolic Z-matrix:
 Charge =  0 Multiplicity = 1

                         Standard orientation:
 ---------------------------------------------------------------------
 Center     Atomic      Atomic             Coordinates (Angstroms)
 Number     Number       Type             X           Y           Z
 ---------------------------------------------------------------------
      1          6           0       -2.657428   -0.738492   -0.227996
      2          6           0       -3.311025    0.327110    0.390304
      3          6           0       -4.570299    0.208961    0.953810
      4          6           0       -5.174663   -1.038036    0.879133
      5          6           0       -4.535121   -2.117629    0.264034
      6          6           0       -3.272444   -1.981698   -0.292335
      7          6           0       -1.372330   -0.227970   -0.672468
      8          1           0       -5.069889    1.043491    1.427109
      9          1           0       -6.160517   -1.174489    1.305002
     10          1           0       -5.036994   -3.076209    0.222337
     11          1           0       -2.774306   -2.816825   -0.767290
     12          6           0       -2.873160    2.750667    0.855879
     13          1           0       -3.640386    3.199637    0.225105
     14          1           0       -3.269310    2.602020    1.858715
     15          1           0       -2.016212    3.412045    0.916292
     16          6           0       -1.337029    1.163613   -0.315028
     17          6           0       -0.275786    2.138038   -0.635400
     18          1           0       -0.607598    3.168299   -0.537930
     19          1           0        0.592946    1.972777    0.006868
     20          1           0        0.069728    1.941353   -1.652626
     21          7           0       -0.470456   -0.961506   -1.301517
     22          7           0        0.630869   -0.411572   -1.708342
     23          6           0        1.811920   -0.332929   -1.073052
     24          6           0        2.922326    0.282954   -1.702662
     25          6           0        2.015477   -0.828069    0.232858
     26          6           0        4.140691    0.374829   -1.068076
     27          1           0        2.797784    0.680040   -2.702959
     28          6           0        3.256832   -0.732648    0.858836
     29          1           0        1.190472   -1.295868    0.755772
     30          6           0        4.329641   -0.132321    0.219165
     31          1           0        4.981056    0.847783   -1.563533
     32          1           0        3.360084   -1.136075    1.857626
     33          8           0        5.589870    0.015603    0.753233
     34          6           0        5.804737   -0.491151    2.052675
     35          1           0        5.634033   -1.572152    2.097590
     36          1           0        6.845044   -0.284146    2.295436
     37          1           0        5.159908    0.000032    2.789382
     38          7           0       -2.473103    1.460520    0.313171
 ---------------------------------------------------------------------

 SCF Done:  E(RCAM-B3LYP) =  -897.204834050     A.U. after   18 cycles

 The electronic state is 1-A.
 Alpha  occ. eigenvalues --  -19.20503 -14.48178 -14.45288 -14.37161 -10.34224
 Alpha  occ. eigenvalues --  -10.30035 -10.29692 -10.28871 -10.28427 -10.28073
 Alpha  occ. eigenvalues --  -10.27984 -10.26619 -10.26509 -10.26027 -10.25992
 Alpha  occ. eigenvalues --  -10.25777 -10.25534 -10.23499 -10.23427 -10.22796
 Alpha  occ. eigenvalues --  -10.22468  -1.13365  -1.12324  -1.09544  -0.96229
 Alpha  occ. eigenvalues --   -0.94457  -0.91365  -0.87461  -0.86890  -0.84616
 Alpha  occ. eigenvalues --   -0.82246  -0.80982  -0.80097  -0.76798  -0.73211
 Alpha  occ. eigenvalues --   -0.70967  -0.68904  -0.67775  -0.66864  -0.63870
 Alpha  occ. eigenvalues --   -0.61430  -0.59725  -0.58798  -0.57669  -0.56515
 Alpha  occ. eigenvalues --   -0.55307  -0.54665  -0.53152  -0.52562  -0.52161
 Alpha  occ. eigenvalues --   -0.51165  -0.50669  -0.50487  -0.49414  -0.48656
 Alpha  occ. eigenvalues --   -0.48337  -0.47654  -0.47214  -0.46442  -0.45338
 Alpha  occ. eigenvalues --   -0.44730  -0.44212  -0.42995  -0.41849  -0.41611
 Alpha  occ. eigenvalues --   -0.40956  -0.38394  -0.37731  -0.34706  -0.30969
 Alpha  occ. eigenvalues --   -0.30764  -0.30294  -0.28172  -0.19812
 Alpha virt. eigenvalues --   -0.06231   0.01109   0.04338   0.04639   0.07987
 Alpha virt. eigenvalues --    0.08579   0.09633   0.09909   0.10766   0.11566
 Alpha virt. eigenvalues --    0.12273   0.12752   0.13430   0.14235   0.15129

 Mulliken charges:
               1
     1  C   -0.034481
     2  C    0.189582
     3  C   -0.058926
     4  C   -0.124430
     5  C   -0.118863
     6  C   -0.053257
     7  C   -0.088463
     8  H    0.139703
     9  H    0.128003
    10  H    0.127548
    11  H    0.112775
    12  C   -0.173161
    13  H    0.170102
    14  H    0.160271
    15  H    0.153953
    16  C    0.289394
    17  C   -0.245422
    18  H    0.143072
    19  H    0.170866
    20  H    0.165034
    21  N   -0.095936
    22  N   -0.356065
    23  C    0.076143
    24  C   -0.131141
    25  C   -0.181002
    26  C   -0.115793
    27  H    0.096724
    28  C   -0.151914
    29  H    0.100288
    30  C    0.106346
    31  H    0.106414
    32  H    0.123349
    33  O   -0.374489
    34  C   -0.152080
    35  H    0.114062
    36  H    0.132221
    37  H    0.113437
    38  N   -0.463863
 Sum of Mulliken charges =  -0.00000

 Dipole moment (field-independent basis, Debye):
    X=             -9.7546    Y=              6.2569    Z=              5.4706  Tot=             12.8151
 Quadrupole moment (field-independent basis, Debye-Ang):
   XX=           -114.2467   YY=           -107.8805   ZZ=           -122.9432
   XY=            -10.2845   XZ=              1.9767   YZ=             -2.8985

  Exact polarizability:     496.772      15.262     250.521     -51.619       0.404     229.878
 Approx polarizability:     359.741      15.226     238.920     -43.870       6.088     232.465

 ******    1 imaginary frequencies (negative Signs) ******

                      1                      2                      3
                      A                      A                      A
 Frequencies --   -943.1491                25.5955                34.1814
 Red. masses --     12.0849                 5.2060                 3.5902
 Frc consts  --      6.3336                 0.0020                 0.0025
 IR Inten    --    281.7040                 3.4840                 3.8343

                      4                      5                      6
                      A                      A                      A
 Frequencies --     52.8605                68.8699                74.0215
 Red. masses --      3.5463                 1.2237                 2.6334
 Frc consts  --      0.0058                 0.0034                 0.0085
 IR Inten    --      3.9028                 0.9529                 2.7874

                      7                      8                      9
                      A                      A                      A
 Frequencies --     94.4209               124.5150               132.1999
 Red. masses --      3.7790                 4.3101                 3.2350
 Frc consts  --      0.0199                 0.0394                 0.0333
 IR Inten    --     16.8770                17.8481                 1.1339

                     10                     11                     12
                      A                      A                      A
 Frequencies --    150.3334               189.4924               200.4069
 Red. masses --      3.2320                 5.1503                 1.2178
 Frc consts  --      0.0430                 0.1090                 0.0288
 IR Inten    --      8.8602                 5.2832                 2.4116

                     13                     14                     15
                      A                      A                      A
 Frequencies --    234.4036               256.1908               277.4117
 Red. masses --      3.7011                 1.3420                 2.5961
 Frc consts  --      0.1198                 0.0519                 0.1177
 IR Inten    --     20.3373                 0.7377                27.1280

                     16                     17                     18
                      A                      A                      A
 Frequencies --    305.6632               327.9074               339.5375
 Red. masses --      4.5036                 4.5970                 4.0113
 Frc consts  --      0.2479                 0.2912                 0.2725
 IR Inten    --     23.2834                29.0716                 0.9772

                     19                     20                     21
                      A                      A                      A
 Frequencies --    364.2687               383.4254               431.7080
 Red. masses --      2.4410                 5.0352                 4.5662
 Frc consts  --      0.1908                 0.4361                 0.5014
 IR Inten    --      6.1009                16.0064                32.5796

                     22                     23                     24
                      A                      A                      A
 Frequencies --    435.7500               446.1155               467.6913
 Red. masses --      3.9056                 3.6425                 4.4168
 Frc consts  --      0.4369                 0.4271                 0.5692
 IR Inten    --     32.2057               241.4122               551.8143

                     25                     26                     27
                      A                      A                      A
 Frequencies --    500.2668               510.7747               530.0453
 Red. masses --      3.4894                 3.5817                 4.2463
 Frc consts  --      0.5145                 0.5506                 0.7029
 IR Inten    --     19.4444               141.2497                13.2534

                     28                     29                     30
                      A                      A                      A
 Frequencies --    565.9101               591.7510               601.7976
 Red. masses --      5.1462                 4.8641                 3.8765
 Frc consts  --      0.9710                 1.0035                 0.8272
 IR Inten    --      7.5987                 3.6904                 5.9564

                     31                     32                     33
                      A                      A                      A
 Frequencies --    654.7524               672.3777               695.3757
 Red. masses --      6.7928                 4.6993                 4.4311
 Frc consts  --      1.7157                 1.2517                 1.2624
 IR Inten    --      5.1326               106.3226                50.5099

                     34                     35                     36
                      A                      A                      A
 Frequencies --    717.3815               719.9807               739.2025
 Red. masses --      3.8916                 4.1689                 5.3132
 Frc consts  --      1.1800                 1.2733                 1.7105
 IR Inten    --     29.8870                 5.7048                60.0165

                     37                     38                     39
                      A                      A                      A
 Frequencies --    782.4469               796.6725               801.6918
 Red. masses --      1.3564                 2.3852                 1.7780
 Frc consts  --      0.4893                 0.8919                 0.6733
 IR Inten    --     87.8769                51.7088                18.6945

                     40                     41                     42
                      A                      A                      A
 Frequencies --    821.3253               836.8779               847.5567
 Red. masses --      1.7449                 3.9017                 3.9865
 Frc consts  --      0.6935                 1.6100                 1.6872
 IR Inten    --     56.9987               137.6871               112.2089

                     43                     44                     45
                      A                      A                      A
 Frequencies --    901.6648               934.7257               943.7120
 Red. masses --      1.4708                 1.3609                 2.4984
 Frc consts  --      0.7045                 0.7005                 1.3110
 IR Inten    --      2.5834                 5.4294                33.0895

                     46                     47                     48
                      A                      A                      A
 Frequencies --    967.2183               986.3360              1006.5477
 Red. masses --      1.2962                 1.3752                 3.6879
 Frc consts  --      0.7145                 0.7882                 2.2014
 IR Inten    --      0.1140                 3.4645               313.8025

                     49                     50                     51
                      A                      A                      A
 Frequencies --   1018.6615              1028.3032              1051.7194
 Red. masses --      2.6391                 1.3209                 1.6469
 Frc consts  --      1.6135                 0.8229                 1.0733
 IR Inten    --     27.2482                 0.0904                18.0128

                     52                     53                     54
                      A                      A                      A
 Frequencies --   1052.8301              1090.5077              1094.3190
 Red. masses --      1.9375                 4.9636                 3.8066
 Frc consts  --      1.2653                 3.4778                 2.6858
 IR Inten    --     10.7241               222.8667               258.9515

                     55                     56                     57
                      A                      A                      A
 Frequencies --   1126.8188              1152.8977              1156.1068
 Red. masses --      1.2985                 1.3631                 1.3889
 Frc consts  --      0.9714                 1.0675                 1.0938
 IR Inten    --    100.4135                22.5363                12.8339

                     58                     59                     60
                      A                      A                      A
 Frequencies --   1162.6374              1181.4258              1183.4582
 Red. masses --      1.9689                 1.2240                 1.2812
 Frc consts  --      1.5681                 1.0066                 1.0572
 IR Inten    --     95.9213                 3.8077                 1.9295

                     61                     62                     63
                      A                      A                      A
 Frequencies --   1188.1840              1198.8151              1213.0899
 Red. masses --      1.7885                 1.6299                 1.4555
 Frc consts  --      1.4877                 1.3801                 1.2620
 IR Inten    --     48.0134               121.2564                49.4717

                     64                     65                     66
                      A                      A                      A
 Frequencies --   1250.6455              1264.0126              1276.2686
 Red. masses --      2.8226                 5.1256                 4.4723
 Frc consts  --      2.6012                 4.8250                 4.2920
 IR Inten    --    473.8251               703.2564               459.3276

                     67                     68                     69
                      A                      A                      A
 Frequencies --   1303.4278              1333.5456              1345.6539
 Red. masses --      3.0702                 1.5012                 1.8732
 Frc consts  --      3.0732                 1.5729                 1.9985
 IR Inten    --    233.4034                42.0499               169.4699

                     70                     71                     72
                      A                      A                      A
 Frequencies --   1371.9789              1403.6727              1426.5417
 Red. masses --      4.1500                 1.5430                 2.1474
 Frc consts  --      4.6025                 1.7913                 2.5747
 IR Inten    --    211.0415               224.1317              1179.6999

                     73                     74                     75
                      A                      A                      A
 Frequencies --   1435.2251              1458.1962              1464.1104
 Red. masses --      1.2103                 2.2777                 1.3858
 Frc consts  --      1.4688                 2.8535                 1.7502
 IR Inten    --     38.1827               177.2836                52.1165

                     76                     77                     78
                      A                      A                      A
 Frequencies --   1475.1787              1483.8150              1487.3971
 Red. masses --      1.2312                 1.2529                 1.0431
 Frc consts  --      1.5785                 1.6253                 1.3597
 IR Inten    --     46.6662                57.2798                12.3477

                     79                     80                     81
                      A                      A                      A
 Frequencies --   1492.5862              1497.8922              1503.8837
 Red. masses --      1.1009                 2.0945                 1.3173
 Frc consts  --      1.4450                 2.7688                 1.7554
 IR Inten    --      5.2523               560.2295               316.1527

                     82                     83                     84
                      A                      A                      A
 Frequencies --   1508.4934              1512.8072              1519.6515
 Red. masses --      1.8339                 1.6194                 2.1257
 Frc consts  --      2.4587                 2.1836                 2.8923
 IR Inten    --    124.1888                67.4068               147.4081

                     85                     86                     87
                      A                      A                      A
 Frequencies --   1541.2455              1595.1148              1604.4844
 Red. masses --      3.8088                 5.6108                 4.9901
 Frc consts  --      5.3307                 8.4112                 7.5688
 IR Inten    --    107.3201               842.5260               143.6019

                     88                     89                     90
                      A                      A                      A
 Frequencies --   1616.1313              1674.7758              1689.4030
 Red. masses --      7.1617                 7.3116                 6.5780
 Frc consts  --     11.0209                12.0831                11.0614
 IR Inten    --    122.3814                11.8582               153.7891

                     91                     92                     93
                      A                      A                      A
 Frequencies --   1696.0438              3018.3903              3058.9607
 Red. masses --      7.4423                 1.0351                 1.0389
 Frc consts  --     12.6134                 5.5564                 5.7277
 IR Inten    --     31.1430                85.4597                13.3760

                     94                     95                     96
                      A                      A                      A
 Frequencies --   3073.6460              3087.2849              3112.5487
 Red. masses --      1.1061                 1.0368                 1.0986
 Frc consts  --      6.1565                 5.8224                 6.2707
 IR Inten    --     68.7783                26.4086                 1.9317

                     97                     98                     99
                      A                      A                      A
 Frequencies --   3151.3525              3159.5497              3175.2657
 Red. masses --      1.0995                 1.1054                 1.1022
 Frc consts  --      6.4334                 6.5017                 6.5477
 IR Inten    --     40.5671                 6.2279                12.7063

                    100                    101                    102
                      A                      A                      A
 Frequencies --   3184.9802              3194.6021              3199.7416
 Red. masses --      1.0873                 1.0882                 1.0876
 Frc consts  --      6.4987                 6.5432                 6.5606
 IR Inten    --     27.4902                18.4150                 2.1080

                    103                    104                    105
                      A                      A                      A
 Frequencies --   3201.8036              3209.1927              3211.8141
 Red. masses --      1.0954                 1.1015                 1.0912
 Frc consts  --      6.6164                 6.6839                 6.6324
 IR Inten    --     26.9573                 5.8730                10.3895

                    106                    107                    108
                      A                      A                      A
 Frequencies --   3216.0681              3221.8008              3227.6953
 Red. masses --      1.0928                 1.0952                 1.0971
 Frc consts  --      6.6595                 6.6980                 6.7342
 IR Inten    --     10.5691                12.2349                10.2258

 - Thermochemistry -
 -------------------
 Temperature   298.150 Kelvin.  Pressure   1.00000 Atm.
 Atom     1 has atomic number  6 and mass  12.00000

 Molecular mass:   279.13716 amu.
 Principal axes and moments of inertia in atomic units:
                           1         2         3
     Eigenvalues --  2537.80038********************
           X            0.99998  -0.00409   0.00372
           Y            0.00421   0.99941  -0.03422
           Z           -0.00358   0.03424   0.99941
 This molecule is an asymmetric top.
 Rotational symmetry number  1.
 Warning -- assumption of classical behavior for rotation
           may cause significant error
 Rotational temperatures (Kelvin)      0.03413     0.00670     0.00645
 Rotational constants (GHZ):           0.71114     0.13967     0.13448
    1 imaginary frequencies ignored.
 Zero-point vibrational energy     809752.3 (Joules/Mol)
                                  193.53545 (Kcal/Mol)
 Warning -- explicit consideration of  29 degrees of freedom as
           vibrations may cause significant error
 Vibrational temperatures:     36.83    49.18    76.05    99.09   106.50
          (Kelvin)            135.85   179.15   190.21   216.30   272.64
                              288.34   337.25   368.60   399.13   439.78
                              471.79   488.52   524.10   551.66   621.13
                              626.95   641.86   672.90   719.77   734.89
                              762.62   814.22   851.40   865.85   942.04
                              967.40  1000.49  1032.15  1035.89  1063.55
                             1125.77  1146.23  1153.46  1181.70  1204.08
                             1219.45  1297.29  1344.86  1357.79  1391.61
                             1419.12  1448.20  1465.63  1479.50  1513.19
                             1514.79  1569.00  1574.48  1621.24  1658.76
                             1663.38  1672.78  1699.81  1702.73  1709.53
                             1724.83  1745.37  1799.40  1818.63  1836.27
                             1875.34  1918.67  1936.10  1973.97  2019.57
                             2052.48  2064.97  2098.02  2106.53  2122.45
                             2134.88  2140.03  2147.50  2155.13  2163.75
                             2170.39  2176.59  2186.44  2217.51  2295.01
                             2308.50  2325.25  2409.63  2430.67  2440.23
                             4342.79  4401.16  4422.29  4441.91  4478.26
                             4534.09  4545.89  4568.50  4582.48  4596.32
                             4603.71  4606.68  4617.31  4621.08  4627.20
                             4635.45  4643.93

 Zero-point correction=                           0.308418 (Hartree/Particle)
 Thermal correction to Energy=                    0.326716
 Thermal correction to Enthalpy=                  0.327661
 Thermal correction to Gibbs Free Energy=         0.260654
 Sum of electronic and zero-point Energies=           -896.896416
 Sum of electronic and thermal Energies=              -896.878118
 Sum of electronic and thermal Enthalpies=            -896.877173
 Sum of electronic and thermal Free Energies=         -896.944180

                     E (Thermal)             CV                S
                      KCal/Mol        Cal/Mol-Kelvin    Cal/Mol-Kelvin
 Total                  205.018             70.515            141.028
 Electronic               0.000              0.000              0.000
 Translational            0.889              2.981             42.778
 Rotational               0.889              2.981             34.442
 Vibrational            203.240             64.554             63.808
 Vibration     1          0.593              1.985              6.144
 Vibration     2          0.594              1.983              5.571
 Vibration     3          0.596              1.976              4.707
 Vibration     4          0.598              1.969              4.185
 Vibration     5          0.599              1.966              4.043
 Vibration     6          0.603              1.953              3.566
 Vibration     7          0.610              1.928              3.029
 Vibration     8          0.612              1.921              2.914
 Vibration     9          0.618              1.902              2.668
 Vibration    10          0.633              1.854              2.233
 Vibration    11          0.638              1.839              2.129
 Vibration    12          0.654              1.788              1.845
 Vibration    13          0.666              1.752              1.688
 Vibration    14          0.678              1.715              1.550
 Vibration    15          0.696              1.663              1.386
 Vibration    16          0.711              1.620              1.270
 Vibration    17          0.719              1.596              1.214
 Vibration    18          0.738              1.546              1.104
 Vibration    19          0.753              1.506              1.026
 Vibration    20          0.793              1.401              0.853
 Vibration    21          0.796              1.392              0.840
 Vibration    22          0.805              1.369              0.808
 Vibration    23          0.825              1.322              0.744
 Vibration    24          0.856              1.249              0.657
 Vibration    25          0.866              1.226              0.632
 Vibration    26          0.885              1.184              0.587
 Vibration    27          0.922              1.105              0.512
 Vibration    28          0.949              1.049              0.464
 Vibration    29          0.960              1.028              0.447

 Normal termination of Gaussian 16 at Fri Oct  6 15:58:43 2023.
