 Gaussian 16, Revision C.01,
 Gaussian 16:  ES64L-G16RevC.01  3-Jul-2019

 ----------------------------------------------------------------------
 # freq CAM-B3LYP/6-311G(d,p) scrf=(solvent=acetonitrile) empiricaldisp
 ersion=gd3bj
 ----------------------------------------------------------------------

 -
 -
 -
 Symbolic Z-matrix:
 Charge =  0 Multiplicity = 1

                         Standard orientation:
 ---------------------------------------------------------------------
 Center     Atomic      Atomic             Coordinates (Angstroms)
 Number     Number       Type             X           Y           Z
 ---------------------------------------------------------------------
      1          6           0        1.655187    0.523341   -0.361966
      2          6           0        2.904474    0.812888    0.201151
      3          6           0        3.366531    2.102811    0.384305
      4          6           0        2.531095    3.133381   -0.027394
      5          6           0        1.284801    2.868329   -0.595281
      6          6           0        0.830087    1.567383   -0.766072
      7          6           0        1.559255   -0.927651   -0.373206
      8          1           0        4.332526    2.308685    0.825919
      9          1           0        2.854465    4.158986    0.097545
     10          1           0        0.657208    3.695084   -0.903855
     11          1           0       -0.142183    1.369760   -1.193074
     12          6           0        4.864285   -0.466158    1.126276
     13          1           0        5.591577    0.015262    0.473188
     14          1           0        4.848477    0.042688    2.089664
     15          1           0        5.148884   -1.502716    1.274709
     16          6           0        2.772023   -1.430297    0.177521
     17          6           0        3.140111   -2.851894    0.357549
     18          1           0        3.311094   -3.078601    1.412015
     19          1           0        2.328959   -3.473258   -0.012027
     20          1           0        4.053598   -3.089413   -0.191353
     21          7           0        0.610989   -1.761370   -0.777820
     22          7           0       -0.422207   -1.265121   -1.369625
     23          6           0       -1.601267   -0.856008   -0.875949
     24          6           0       -2.608047   -0.359427   -1.740860
     25          6           0       -1.900802   -0.879242    0.503206
     26          6           0       -3.821776    0.067357   -1.248916
     27          1           0       -2.407513   -0.322168   -2.804816
     28          6           0       -3.135060   -0.448766    0.983247
     29          1           0       -1.153151   -1.238761    1.199504
     30          6           0       -4.106682    0.028275    0.116916
     31          1           0       -4.582540    0.444391   -1.923019
     32          1           0       -3.314104   -0.492165    2.049589
     33          8           0       -5.351836    0.479443    0.493204
     34          6           0       -5.662112    0.447968    1.869487
     35          1           0       -4.980036    1.076936    2.451666
     36          1           0       -6.674135    0.836045    1.965564
     37          1           0       -5.629758   -0.572066    2.267248
     38          7           0        3.545318   -0.403219    0.518277
 ---------------------------------------------------------------------

 SCF Done:  E(RCAM-B3LYP) =  -897.210205553     A.U. after   18 cycles

 The electronic state is 1-A.
 Alpha  occ. eigenvalues --  -19.20487 -14.47737 -14.45446 -14.37318 -10.33851
 Alpha  occ. eigenvalues --  -10.30095 -10.29629 -10.28593 -10.28416 -10.28251
 Alpha  occ. eigenvalues --  -10.27973 -10.26668 -10.26451 -10.26178 -10.25863
 Alpha  occ. eigenvalues --  -10.25820 -10.25402 -10.23505 -10.23435 -10.22808
 Alpha  occ. eigenvalues --  -10.22476  -1.13350  -1.12231  -1.09751  -0.95927
 Alpha  occ. eigenvalues --   -0.94725  -0.91538  -0.87306  -0.86806  -0.84543
 Alpha  occ. eigenvalues --   -0.82257  -0.80792  -0.80167  -0.76911  -0.73418
 Alpha  occ. eigenvalues --   -0.70720  -0.69463  -0.67591  -0.65864  -0.63945
 Alpha  occ. eigenvalues --   -0.61477  -0.59089  -0.58859  -0.57654  -0.56763
 Alpha  occ. eigenvalues --   -0.55326  -0.54663  -0.53157  -0.52847  -0.52325
 Alpha  occ. eigenvalues --   -0.51078  -0.50543  -0.50149  -0.49160  -0.48597
 Alpha  occ. eigenvalues --   -0.48467  -0.47599  -0.47543  -0.46295  -0.45453
 Alpha  occ. eigenvalues --   -0.44746  -0.44293  -0.43104  -0.41891  -0.41751
 Alpha  occ. eigenvalues --   -0.40934  -0.38393  -0.37581  -0.34467  -0.30972
 Alpha  occ. eigenvalues --   -0.30711  -0.30348  -0.28280  -0.19845
 Alpha virt. eigenvalues --   -0.06013   0.01138   0.04180   0.04848   0.07872
 Alpha virt. eigenvalues --    0.08622   0.09711   0.09902   0.11061   0.11794
 Alpha virt. eigenvalues --    0.12255   0.12745   0.13773   0.15045   0.15261

 Mulliken charges:
               1
     1  C   -0.044301
     2  C    0.196173
     3  C   -0.062577
     4  C   -0.116795
     5  C   -0.125065
     6  C   -0.057339
     7  C   -0.083190
     8  H    0.139613
     9  H    0.127977
    10  H    0.125050
    11  H    0.139040
    12  C   -0.176712
    13  H    0.164394
    14  H    0.164210
    15  H    0.157929
    16  C    0.279723
    17  C   -0.261753
    18  H    0.166209
    19  H    0.144849
    20  H    0.166043
    21  N   -0.103122
    22  N   -0.350923
    23  C    0.089570
    24  C   -0.139836
    25  C   -0.179601
    26  C   -0.114467
    27  H    0.097959
    28  C   -0.150821
    29  H    0.099882
    30  C    0.104654
    31  H    0.106661
    32  H    0.123524
    33  O   -0.374525
    34  C   -0.152196
    35  H    0.113646
    36  H    0.132215
    37  H    0.113904
    38  N   -0.459999
 Sum of Mulliken charges =  -0.00000

 Dipole moment (field-independent basis, Debye):
    X=             13.3809    Y=              1.0163    Z=              5.6974  Tot=             14.5788
 Quadrupole moment (field-independent basis, Debye-Ang):
   XX=            -88.6591   YY=           -117.0168   ZZ=           -119.5490
   XY=             -9.5560   XZ=              2.0014   YZ=             -6.0283

  Exact polarizability:     463.591      -8.397     281.829      51.990       0.231     226.957
 Approx polarizability:     348.106     -12.718     259.581      46.895       3.961     228.380

 ******    1 imaginary frequencies (negative Signs) ******

                      1                      2                      3
                      A                      A                      A
 Frequencies --   -865.8742                25.1982                32.4727
 Red. masses --     12.7594                 4.5280                 4.2153
 Frc consts  --      5.6362                 0.0017                 0.0026
 IR Inten    --    126.6604                 9.2526                 1.8334

                      4                      5                      6
                      A                      A                      A
 Frequencies --     51.2342                72.8038                76.5225
 Red. masses --      3.9452                 2.4763                 1.1881
 Frc consts  --      0.0061                 0.0077                 0.0041
 IR Inten    --      2.5643                 3.3581                 0.5721

                      7                      8                      9
                      A                      A                      A
 Frequencies --     94.9042               121.4902               133.9248
 Red. masses --      3.8917                 5.0702                 2.0006
 Frc consts  --      0.0207                 0.0441                 0.0211
 IR Inten    --     22.9769                 1.7262                13.3596

                     10                     11                     12
                      A                      A                      A
 Frequencies --    144.9040               166.3897               210.6215
 Red. masses --      3.0994                 1.4206                 4.1385
 Frc consts  --      0.0383                 0.0232                 0.1082
 IR Inten    --      1.1323                 1.3700                13.9018

                     13                     14                     15
                      A                      A                      A
 Frequencies --    228.9025               248.6934               262.0040
 Red. masses --      3.6199                 2.3924                 1.5406
 Frc consts  --      0.1117                 0.0872                 0.0623
 IR Inten    --      2.0895                15.5411                20.2867

                     16                     17                     18
                      A                      A                      A
 Frequencies --    297.7495               310.4392               330.4016
 Red. masses --      3.7303                 2.9871                 3.9795
 Frc consts  --      0.1948                 0.1696                 0.2560
 IR Inten    --     36.3436                 3.1860                20.9674

                     19                     20                     21
                      A                      A                      A
 Frequencies --    336.0368               388.8360               431.3897
 Red. masses --      4.3524                 5.2162                 4.2989
 Frc consts  --      0.2896                 0.4647                 0.4714
 IR Inten    --      1.1527                36.4639                97.0334

                     22                     23                     24
                      A                      A                      A
 Frequencies --    435.4675               446.8563               475.4466
 Red. masses --      4.1312                 3.4110                 3.8959
 Frc consts  --      0.4616                 0.4013                 0.5189
 IR Inten    --     94.6745               155.6927               416.1297

                     25                     26                     27
                      A                      A                      A
 Frequencies --    497.7729               513.2747               531.7074
 Red. masses --      5.3082                 3.2644                 4.3359
 Frc consts  --      0.7749                 0.5067                 0.7222
 IR Inten    --      3.5352               246.3755                24.3305

                     28                     29                     30
                      A                      A                      A
 Frequencies --    567.7899               585.2226               606.9092
 Red. masses --      5.1140                 6.0779                 3.7674
 Frc consts  --      0.9714                 1.2264                 0.8176
 IR Inten    --     51.6372                 3.9288                15.9351

                     31                     32                     33
                      A                      A                      A
 Frequencies --    650.9265               666.3148               686.7069
 Red. masses --      4.9390                 5.3164                 3.5537
 Frc consts  --      1.2330                 1.3907                 0.9874
 IR Inten    --     36.1381               119.8949                 3.8378

                     34                     35                     36
                      A                      A                      A
 Frequencies --    711.1844               729.2848               748.4050
 Red. masses --      3.6122                 5.3561                 4.8090
 Frc consts  --      1.0764                 1.6784                 1.5870
 IR Inten    --     10.4839                44.2068                69.0551

                     37                     38                     39
                      A                      A                      A
 Frequencies --    780.9096               796.0969               802.9631
 Red. masses --      1.3567                 3.2307                 1.4904
 Frc consts  --      0.4875                 1.2064                 0.5662
 IR Inten    --     91.5788                12.9649                36.9469

                     40                     41                     42
                      A                      A                      A
 Frequencies --    813.8332               826.3764               846.0351
 Red. masses --      3.4034                 1.8409                 5.3198
 Frc consts  --      1.3281                 0.7407                 2.2435
 IR Inten    --      7.0837                85.0224               170.9540

                     43                     44                     45
                      A                      A                      A
 Frequencies --    898.3522               936.1460               945.2490
 Red. masses --      1.4599                 1.3569                 2.9826
 Frc consts  --      0.6942                 0.7006                 1.5701
 IR Inten    --      2.2065                 3.1057               105.9018

                     46                     47                     48
                      A                      A                      A
 Frequencies --    965.4820               980.6029              1018.7273
 Red. masses --      1.2949                 1.3792                 2.6134
 Frc consts  --      0.7112                 0.7814                 1.5980
 IR Inten    --      0.1676                 2.7196                17.8522

                     49                     50                     51
                      A                      A                      A
 Frequencies --   1025.7074              1045.1593              1060.3638
 Red. masses --      1.3178                 2.3147                 1.9958
 Frc consts  --      0.8168                 1.4898                 1.3221
 IR Inten    --      0.1274                32.4530                 1.4014

                     52                     53                     54
                      A                      A                      A
 Frequencies --   1064.6739              1088.5242              1094.3207
 Red. masses --      1.6064                 4.5528                 3.9550
 Frc consts  --      1.0728                 3.1784                 2.7905
 IR Inten    --     14.3000               212.3696               147.4013

                     55                     56                     57
                      A                      A                      A
 Frequencies --   1124.5330              1152.1025              1154.7973
 Red. masses --      1.3535                 1.7689                 1.3516
 Frc consts  --      1.0084                 1.3834                 1.0620
 IR Inten    --    215.4740               192.3757                 5.9857

                     58                     59                     60
                      A                      A                      A
 Frequencies --   1161.6713              1183.4853              1184.7131
 Red. masses --      1.5824                 1.2810                 1.2243
 Frc consts  --      1.2582                 1.0571                 1.0124
 IR Inten    --      2.4372                 1.7535                 7.0421

                     61                     62                     63
                      A                      A                      A
 Frequencies --   1193.2390              1206.3659              1213.1808
 Red. masses --      1.2095                 2.4349                 1.6143
 Frc consts  --      1.0147                 2.0878                 1.3999
 IR Inten    --     35.2095                88.7669                52.5604

                     64                     65                     66
                      A                      A                      A
 Frequencies --   1231.3635              1266.0181              1278.1883
 Red. masses --      3.4664                 5.4073                 3.5344
 Frc consts  --      3.0967                 5.1063                 3.4022
 IR Inten    --    143.6975               671.5811               968.3959

                     67                     68                     69
                      A                      A                      A
 Frequencies --   1306.6425              1333.0718              1348.7444
 Red. masses --      2.8938                 1.4856                 1.9687
 Frc consts  --      2.9110                 1.5554                 2.1100
 IR Inten    --    118.9974                38.6642               147.3771

                     70                     71                     72
                      A                      A                      A
 Frequencies --   1368.2480              1410.7563              1425.6763
 Red. masses --      4.4226                 1.3333                 2.6876
 Frc consts  --      4.8781                 1.5635                 3.2185
 IR Inten    --    325.4574                80.2261              1648.6387

                     73                     74                     75
                      A                      A                      A
 Frequencies --   1455.6922              1462.5998              1477.1858
 Red. masses --      1.3757                 2.0556                 1.0408
 Frc consts  --      1.7176                 2.5908                 1.3382
 IR Inten    --    112.4498                24.4457                37.6182

                     76                     77                     78
                      A                      A                      A
 Frequencies --   1482.5048              1486.6244              1487.3166
 Red. masses --      1.3378                 1.4728                 1.0474
 Frc consts  --      1.7323                 1.9178                 1.3651
 IR Inten    --     43.4856               198.9693                 7.8812

                     79                     80                     81
                      A                      A                      A
 Frequencies --   1491.2469              1497.0822              1500.7248
 Red. masses --      1.0525                 1.7514                 1.6242
 Frc consts  --      1.3790                 2.3128                 2.1553
 IR Inten    --     12.9959               538.5410               396.1831

                     82                     83                     84
                      A                      A                      A
 Frequencies --   1509.9075              1516.0151              1522.2702
 Red. masses --      1.3737                 2.0498                 1.9880
 Frc consts  --      1.8452                 2.7757                 2.7143
 IR Inten    --     92.3530                87.3977               303.0120

                     85                     86                     87
                      A                      A                      A
 Frequencies --   1542.7936              1601.8558              1613.2011
 Red. masses --      4.1744                 5.6733                 6.9715
 Frc consts  --      5.8541                 8.5769                10.6894
 IR Inten    --     70.1380               375.8344                14.2978

                     88                     89                     90
                      A                      A                      A
 Frequencies --   1628.0740              1668.3645              1690.2026
 Red. masses --      7.4555                 7.0063                 6.8688
 Frc consts  --     11.6432                11.4901                11.5613
 IR Inten    --    516.0144                 7.2378               137.4286

                     91                     92                     93
                      A                      A                      A
 Frequencies --   1693.4152              3018.2377              3066.7730
 Red. masses --      7.2159                 1.0352                 1.0391
 Frc consts  --     12.1918                 5.5561                 5.7580
 IR Inten    --     81.8821                86.4500                 5.1180

                     94                     95                     96
                      A                      A                      A
 Frequencies --   3073.4805              3083.5069              3126.6431
 Red. masses --      1.1061                 1.0355                 1.1014
 Frc consts  --      6.1559                 5.8007                 6.3440
 IR Inten    --     69.4407                33.7445                 3.3566

                     97                     98                     99
                      A                      A                      A
 Frequencies --   3151.4529              3153.0640              3181.6864
 Red. masses --      1.0994                 1.1067                 1.1001
 Frc consts  --      6.4335                 6.4827                 6.5615
 IR Inten    --     40.5377                 6.9609                 2.0148

                    100                    101                    102
                      A                      A                      A
 Frequencies --   3185.9605              3193.9623              3199.4946
 Red. masses --      1.0873                 1.0883                 1.0881
 Frc consts  --      6.5026                 6.5412                 6.5630
 IR Inten    --     27.3972                15.5011                 2.7817

                    103                    104                    105
                      A                      A                      A
 Frequencies --   3201.6665              3202.7073              3212.1315
 Red. masses --      1.1024                 1.0954                 1.0923
 Frc consts  --      6.6583                 6.6199                 6.6404
 IR Inten    --      4.1327                25.7552                13.9161

                    106                    107                    108
                      A                      A                      A
 Frequencies --   3215.6544              3224.1123              3243.4473
 Red. masses --      1.0929                 1.0968                 1.0944
 Frc consts  --      6.6582                 6.7176                 6.7831
 IR Inten    --     10.5309                 8.9965                 5.3100

 - Thermochemistry -
 -------------------
 Temperature   298.150 Kelvin.  Pressure   1.00000 Atm.
 Atom     1 has atomic number  6 and mass  12.00000

 Molecular mass:   279.13716 amu.
 Principal axes and moments of inertia in atomic units:
                           1         2         3
     Eigenvalues --  3066.44967********************
           X            0.99996  -0.00891  -0.00134
           Y            0.00888   0.99976  -0.02005
           Z            0.00152   0.02004   0.99980
 This molecule is an asymmetric top.
 Rotational symmetry number  1.
 Warning -- assumption of classical behavior for rotation
           may cause significant error
 Rotational temperatures (Kelvin)      0.02825     0.00782     0.00697
 Rotational constants (GHZ):           0.58854     0.16296     0.14528
    1 imaginary frequencies ignored.
 Zero-point vibrational energy     809941.0 (Joules/Mol)
                                  193.58055 (Kcal/Mol)
 Warning -- explicit consideration of  29 degrees of freedom as
           vibrations may cause significant error
 Vibrational temperatures:     36.25    46.72    73.71   104.75   110.10
          (Kelvin)            136.55   174.80   192.69   208.48   239.40
                              303.04   329.34   357.81   376.97   428.40
                              446.65   475.37   483.48   559.45   620.67
                              626.54   642.93   684.06   716.18   738.49
                              765.01   816.92   842.00   873.21   936.54
                              958.68   988.02  1023.24  1049.28  1076.79
                             1123.55  1145.41  1155.28  1170.92  1188.97
                             1217.26  1292.53  1346.91  1360.00  1389.11
                             1410.87  1465.72  1475.76  1503.75  1525.63
                             1531.83  1566.14  1574.48  1617.95  1657.62
                             1661.50  1671.39  1702.77  1704.54  1716.80
                             1735.69  1745.50  1771.66  1821.52  1839.03
                             1879.97  1917.99  1940.54  1968.60  2029.76
                             2051.23  2094.42  2104.35  2125.34  2132.99
                             2138.92  2139.92  2145.57  2153.97  2159.21
                             2172.42  2181.21  2190.21  2219.74  2304.71
                             2321.04  2342.44  2400.40  2431.82  2436.45
                             4342.57  4412.40  4422.05  4436.48  4498.54
                             4534.24  4536.56  4577.74  4583.89  4595.40
                             4603.36  4606.48  4607.98  4621.54  4626.61
                             4638.78  4666.60

 Zero-point correction=                           0.308490 (Hartree/Particle)
 Thermal correction to Energy=                    0.326917
 Thermal correction to Enthalpy=                  0.327861
 Thermal correction to Gibbs Free Energy=         0.260535
 Sum of electronic and zero-point Energies=           -896.901715
 Sum of electronic and thermal Energies=              -896.883288
 Sum of electronic and thermal Enthalpies=            -896.882344
 Sum of electronic and thermal Free Energies=         -896.949670

                     E (Thermal)             CV                S
                      KCal/Mol        Cal/Mol-Kelvin    Cal/Mol-Kelvin
 Total                  205.144             70.655            141.700
 Electronic               0.000              0.000              0.000
 Translational            0.889              2.981             42.778
 Rotational               0.889              2.981             34.400
 Vibrational            203.366             64.694             64.522
 Vibration     1          0.593              1.985              6.176
 Vibration     2          0.594              1.983              5.672
 Vibration     3          0.595              1.977              4.769
 Vibration     4          0.599              1.967              4.076
 Vibration     5          0.599              1.965              3.978
 Vibration     6          0.603              1.953              3.556
 Vibration     7          0.609              1.931              3.077
 Vibration     8          0.613              1.919              2.889
 Vibration     9          0.616              1.908              2.738
 Vibration    10          0.624              1.884              2.476
 Vibration    11          0.643              1.825              2.038
 Vibration    12          0.652              1.797              1.888
 Vibration    13          0.662              1.765              1.740
 Vibration    14          0.669              1.742              1.648
 Vibration    15          0.691              1.678              1.430
 Vibration    16          0.699              1.654              1.360
 Vibration    17          0.713              1.615              1.258
 Vibration    18          0.717              1.604              1.231
 Vibration    19          0.757              1.494              1.005
 Vibration    20          0.792              1.402              0.854
 Vibration    21          0.796              1.393              0.841
 Vibration    22          0.806              1.368              0.805
 Vibration    23          0.832              1.305              0.722
 Vibration    24          0.853              1.255              0.664
 Vibration    25          0.868              1.221              0.626
 Vibration    26          0.887              1.180              0.583
 Vibration    27          0.924              1.101              0.509
 Vibration    28          0.942              1.063              0.476
 Vibration    29          0.966              1.017              0.438

 Normal termination of Gaussian 16 at Fri Oct  6 15:59:42 2023.
