 Gaussian 16, Revision C.01,
 Gaussian 16:  ES64L-G16RevC.01  3-Jul-2019

 ----------------------------------------------------------------------
 # CAM-B3LYP/6-311G(d,p) td(nstates=20, singlets) scrf=(solvent=acetoni
 trile) EmpiricalDispersion=GD3BJ
 ----------------------------------------------------------------------

 -
 -
 -
 Symbolic Z-matrix:
 Charge =  0 Multiplicity = 1

                         Standard orientation:
 ---------------------------------------------------------------------
 Center     Atomic      Atomic             Coordinates (Angstroms)
 Number     Number       Type             X           Y           Z
 ---------------------------------------------------------------------
      1          6           0        1.430856    0.122110   -0.452415
      2          6           0        2.600703    0.770277    0.006391
      3          6           0        2.770731    2.151151   -0.047886
      4          6           0        1.748048    2.899471   -0.595652
      5          6           0        0.590148    2.280082   -1.085814
      6          6           0        0.424128    0.910353   -1.024104
      7          6           0        1.664856   -1.296817   -0.244395
      8          6           0        2.938166   -1.408302    0.271343
      9          1           0        3.675621    2.619657    0.317602
     10          1           0        1.845612    3.976409   -0.655086
     11          1           0       -0.193001    2.888789   -1.521083
     12          1           0       -0.478060    0.462939   -1.413449
     13          1           0        3.468184   -2.311599    0.529268
     14          7           0        3.489297   -0.186640    0.459285
     15          6           0        4.802217    0.086250    1.010037
     16          1           0        4.719367    0.702261    1.906323
     17          1           0        5.275297   -0.856808    1.272407
     18          1           0        5.424132    0.602675    0.277539
     19          7           0        0.993568   -2.494949   -0.532635
     20          7           0       -0.241400   -2.649622   -0.601104
     21          6           0       -1.173567   -1.648403   -0.203838
     22          6           0       -1.101863   -1.007400    1.034463
     23          6           0       -2.273079   -1.425977   -1.018904
     24          6           0       -2.092156   -0.128132    1.416492
     25          1           0       -0.269677   -1.202407    1.698066
     26          6           0       -3.257853   -0.515758   -0.657530
     27          1           0       -2.346479   -1.961901   -1.957278
     28          6           0       -3.166955    0.141373    0.566404
     29          1           0       -2.052813    0.375049    2.374181
     30          1           0       -4.089070   -0.342351   -1.325439
     31          8           0       -4.072504    1.039222    1.023797
     32          6           0       -5.182391    1.354160    0.196978
     33          1           0       -4.857386    1.780925   -0.755597
     34          1           0       -5.800543    0.472130    0.010102
     35          1           0       -5.763341    2.092308    0.743821
 ---------------------------------------------------------------------

 SCF Done:  E(RCAM-B3LYP) =  -857.946859239     A.U. after   15 cycles

 Excitation energies and oscillator strengths:

 Excited State   1:      Singlet-A      2.8306 eV  438.01 nm  f=0.0819  <S**2>=0.000
      67 -> 71        -0.36063
      69 -> 71        -0.15892
      70 -> 71         0.56032
 This state for optimization and/or second-order correction.
 Total Energy, E(TD-HF/TD-DFT) =  -857.842835888
 Copying the excited state density for this state as the 1-particle RhoCI density.

 Excited State   2:      Singlet-A      4.1791 eV  296.68 nm  f=0.3760  <S**2>=0.000
      65 -> 71        -0.11431
      66 -> 71        -0.10462
      67 -> 71         0.41593
      68 -> 71        -0.13102
      69 -> 71         0.30344
      70 -> 71         0.40437

 Excited State   3:      Singlet-A      4.5301 eV  273.69 nm  f=0.0569  <S**2>=0.000
      64 -> 71        -0.14966
      67 -> 71        -0.27825
      68 -> 71         0.18621
      69 -> 71         0.55197

 Excited State   4:      Singlet-A      4.6697 eV  265.51 nm  f=0.0361  <S**2>=0.000
      67 -> 71         0.19647
      68 -> 71         0.29175
      69 -> 71        -0.13053
      69 -> 73        -0.11048
      70 -> 72         0.52959
      70 -> 73         0.12640

 Excited State   5:      Singlet-A      4.7839 eV  259.17 nm  f=0.0159  <S**2>=0.000
      66 -> 71         0.20577
      68 -> 71        -0.13540
      69 -> 72        -0.16122
      69 -> 73        -0.22102
      70 -> 72        -0.13324
      70 -> 73         0.55248

 Excited State   6:      Singlet-A      5.0362 eV  246.19 nm  f=0.1420  <S**2>=0.000
      67 -> 71         0.14319
      68 -> 71         0.51003
      68 -> 72        -0.13685
      70 -> 72        -0.36683
      70 -> 74         0.12149

 Excited State   7:      Singlet-A      5.2315 eV  237.00 nm  f=0.0615  <S**2>=0.000
      65 -> 71        -0.10587
      68 -> 71         0.23603
      68 -> 72         0.50095
      68 -> 73        -0.10268
      69 -> 73        -0.15475
      69 -> 74        -0.13453
      69 -> 75         0.12613
      70 -> 74        -0.24457
      70 -> 75         0.10002

 Excited State   8:      Singlet-A      5.5187 eV  224.66 nm  f=0.0282  <S**2>=0.000
      66 -> 71         0.56883
      67 -> 73         0.12458
      70 -> 73        -0.32616

 Excited State   9:      Singlet-A      5.7866 eV  214.26 nm  f=0.1297  <S**2>=0.000
      67 -> 72         0.19702
      69 -> 72         0.49015
      69 -> 73        -0.13965
      70 -> 72        -0.12643
      70 -> 74         0.24163
      70 -> 75         0.22535

 Excited State  10:      Singlet-A      5.8670 eV  211.32 nm  f=0.0074  <S**2>=0.000
      66 -> 73         0.13610
      69 -> 72        -0.32076
      69 -> 73        -0.12809
      69 -> 74        -0.12739
      69 -> 75        -0.12574
      70 -> 74         0.25054
      70 -> 75         0.43742

 Excited State  11:      Singlet-A      5.9433 eV  208.61 nm  f=0.1464  <S**2>=0.000
      66 -> 71         0.26178
      67 -> 72        -0.11906
      67 -> 73        -0.16213
      68 -> 72         0.22030
      69 -> 73         0.46555
      69 -> 74        -0.10004
      70 -> 73         0.18156
      70 -> 74         0.12447

 Excited State  12:      Singlet-A      6.0985 eV  203.30 nm  f=0.1902  <S**2>=0.000
      65 -> 71        -0.24101
      67 -> 73         0.18117
      68 -> 72         0.22502
      69 -> 74         0.10741
      70 -> 74         0.44350
      70 -> 75        -0.31408

 Excited State  13:      Singlet-A      6.2115 eV  199.60 nm  f=0.0554  <S**2>=0.000
      65 -> 71        -0.32019
      67 -> 72         0.20498
      67 -> 73         0.31535
      68 -> 72        -0.14754
      68 -> 73        -0.13375
      69 -> 73         0.32052
      70 -> 74        -0.12666
      70 -> 75         0.20382

 Excited State  14:      Singlet-A      6.2787 eV  197.47 nm  f=0.0612  <S**2>=0.000
      64 -> 71         0.16192
      65 -> 71         0.40140
      67 -> 72         0.15292
      67 -> 73         0.43943
      68 -> 72         0.11492
      69 -> 75        -0.10472

 Excited State  15:      Singlet-A      6.4128 eV  193.34 nm  f=0.0407  <S**2>=0.000
      64 -> 71        -0.12413
      65 -> 71         0.17906
      66 -> 72        -0.13978
      66 -> 73        -0.11927
      67 -> 72         0.48394
      67 -> 73        -0.22288
      67 -> 74        -0.11343
      67 -> 75        -0.11073
      69 -> 72        -0.15514
      70 -> 74         0.12781

 Excited State  16:      Singlet-A      6.4993 eV  190.77 nm  f=0.3373  <S**2>=0.000
      65 -> 71        -0.13439
      65 -> 72         0.12087
      66 -> 72         0.19256
      66 -> 73         0.20435
      67 -> 72         0.17579
      68 -> 72         0.13438
      68 -> 73         0.43133
      68 -> 74         0.15727
      68 -> 75        -0.14841
      69 -> 72        -0.17932
      69 -> 73         0.10717

 Excited State  17:      Singlet-A      6.5709 eV  188.69 nm  f=0.0172  <S**2>=0.000
      64 -> 71         0.20171
      66 -> 73         0.29966
      67 -> 72         0.20186
      67 -> 73        -0.17113
      67 -> 74         0.11044
      67 -> 75         0.16597
      68 -> 72        -0.10787
      68 -> 73        -0.23930
      68 -> 74        -0.18391
      68 -> 75         0.13014
      69 -> 74        -0.13649
      69 -> 75        -0.13929
      70 -> 75        -0.11509

 Excited State  18:      Singlet-A      6.7427 eV  183.88 nm  f=0.0424  <S**2>=0.000
      65 -> 71         0.12209
      66 -> 72         0.11954
      66 -> 73         0.11421
      67 -> 74         0.14503
      67 -> 75         0.14442
      68 -> 73        -0.12367
      68 -> 74        -0.11198
      69 -> 74         0.40607
      69 -> 75         0.35172
      70 -> 75         0.19957

 Excited State  19:      Singlet-A      6.7958 eV  182.44 nm  f=0.2393  <S**2>=0.000
      60 -> 71        -0.12974
      64 -> 71        -0.28332
      65 -> 71         0.11804
      65 -> 72        -0.16781
      66 -> 73         0.35202
      67 -> 73         0.10121
      68 -> 73         0.17275
      68 -> 74        -0.14739
      69 -> 71        -0.11979
      70 -> 76        -0.21664

 Excited State  20:      Singlet-A      6.8432 eV  181.18 nm  f=0.0070  <S**2>=0.000
      65 -> 72        -0.11964
      66 -> 72        -0.12244
      68 -> 73         0.16164
      68 -> 74        -0.14506
      69 -> 77        -0.15468
      70 -> 76         0.54591
      70 -> 78         0.16815
      70 -> 79        -0.13720

 The electronic state is 1-A.
 Alpha  occ. eigenvalues --  -19.22603 -14.44733 -14.43750 -14.42586 -10.31462
 Alpha  occ. eigenvalues --  -10.29342 -10.29125 -10.28572 -10.28542 -10.27540
 Alpha  occ. eigenvalues --  -10.27186 -10.25757 -10.25633 -10.25519 -10.25228
 Alpha  occ. eigenvalues --  -10.25140 -10.24937 -10.24826 -10.24766 -10.24306
 Alpha  occ. eigenvalues --   -1.15773  -1.11839  -1.09174  -0.95637  -0.94339
 Alpha  occ. eigenvalues --   -0.90772  -0.86462  -0.84407  -0.84000  -0.82265
 Alpha  occ. eigenvalues --   -0.80741  -0.78331  -0.73361  -0.70680  -0.70207
 Alpha  occ. eigenvalues --   -0.69022  -0.66074  -0.64039  -0.62377  -0.60275
 Alpha  occ. eigenvalues --   -0.57415  -0.57056  -0.56414  -0.55156  -0.54697
 Alpha  occ. eigenvalues --   -0.54395  -0.52557  -0.51699  -0.51031  -0.50288
 Alpha  occ. eigenvalues --   -0.49947  -0.49458  -0.48204  -0.47712  -0.47142
 Alpha  occ. eigenvalues --   -0.46323  -0.45251  -0.44584  -0.43191  -0.42588
 Alpha  occ. eigenvalues --   -0.41668  -0.40835  -0.39866  -0.38389  -0.34607
 Alpha  occ. eigenvalues --   -0.32040  -0.30570  -0.29181  -0.28324  -0.25091
 Alpha virt. eigenvalues --   -0.02166   0.01937   0.02684   0.05704   0.06363
 Alpha virt. eigenvalues --    0.08526   0.09233   0.10498   0.11185   0.12049
 Alpha virt. eigenvalues --    0.12211   0.12959   0.13617   0.15277   0.15428

 Mulliken charges:
               1
     1  C   -0.092653
     2  C    0.209053
     3  C   -0.075620
     4  C   -0.130988
     5  C   -0.140721
     6  C   -0.057038
     7  C   -0.115015
     8  C    0.177074
     9  H    0.129798
    10  H    0.118902
    11  H    0.114624
    12  H    0.130075
    13  H    0.142828
    14  N   -0.430240
    15  C   -0.166673
    16  H    0.147914
    17  H    0.143081
    18  H    0.147779
    19  N   -0.184092
    20  N   -0.189845
    21  C   -0.084224
    22  C   -0.034625
    23  C   -0.074480
    24  C   -0.106481
    25  H    0.135821
    26  C   -0.149690
    27  H    0.116815
    28  C    0.163635
    29  H    0.123487
    30  H    0.141049
    31  O   -0.350365
    32  C   -0.159351
    33  H    0.128595
    34  H    0.128835
    35  H    0.142734
 Sum of Mulliken charges =  -0.00000

 Dipole moment (field-independent basis, Debye):
    X=              2.3587    Y=              4.5662    Z=              1.4633  Tot=              5.3437
 Quadrupole moment (field-independent basis, Debye-Ang):
   XX=            -70.7347   YY=           -126.8111   ZZ=           -116.0728
   XY=             -3.9633   XZ=             16.9410   YZ=             -4.9642

 Normal termination of Gaussian 16 at Wed Dec 18 00:22:28 2024.
