 Gaussian 16, Revision C.01,
 Gaussian 16:  ES64L-G16RevC.01  3-Jul-2019

 ----------------------------------------------------------------------
 # CAM-B3LYP/6-311G(d,p) td(nstates=20, singlets) scrf=(solvent=acetoni
 trile) EmpiricalDispersion=GD3BJ
 ----------------------------------------------------------------------

 -
 -
 -
 Symbolic Z-matrix:
 Charge =  0 Multiplicity = 1

                         Standard orientation:
 ---------------------------------------------------------------------
 Center     Atomic      Atomic             Coordinates (Angstroms)
 Number     Number       Type             X           Y           Z
 ---------------------------------------------------------------------
      1          6           0       -2.438497    0.432045   -0.000063
      2          6           0       -3.769222   -0.038793   -0.000015
      3          6           0       -4.864932    0.818821   -0.000155
      4          6           0       -4.608407    2.177575   -0.000332
      5          6           0       -3.294501    2.667100   -0.000375
      6          6           0       -2.208383    1.811135   -0.000244
      7          6           0       -1.604801   -0.748366    0.000096
      8          6           0       -2.452122   -1.835322    0.000212
      9          1           0       -5.878993    0.439669   -0.000135
     10          1           0       -5.437002    2.875103   -0.000444
     11          1           0       -3.129972    3.737821   -0.000517
     12          1           0       -1.196137    2.187166   -0.000280
     13          1           0       -2.196578   -2.883232    0.000346
     14          7           0       -3.743530   -1.423519    0.000171
     15          6           0       -4.915048   -2.277361    0.000214
     16          1           0       -5.520383   -2.094629   -0.888703
     17          1           0       -4.593208   -3.315862    0.000771
     18          1           0       -5.520848   -2.093841    0.888648
     19          7           0       -0.235617   -0.915855    0.000149
     20          7           0        0.439934    0.138398    0.000125
     21          6           0        1.841574   -0.053524    0.000018
     22          6           0        2.473952   -1.302564   -0.000748
     23          6           0        2.621383    1.094499    0.000666
     24          6           0        3.847241   -1.383784   -0.000809
     25          1           0        1.867890   -2.197624   -0.001294
     26          6           0        4.008599    1.024482    0.000636
     27          1           0        2.125309    2.057261    0.001222
     28          6           0        4.627726   -0.221386   -0.000103
     29          1           0        4.352744   -2.341350   -0.001418
     30          1           0        4.586802    1.937007    0.001173
     31          8           0        5.967206   -0.412393   -0.000235
     32          6           0        6.810286    0.730135    0.000539
     33          1           0        6.649784    1.340449   -0.891941
     34          1           0        6.649639    1.339345    0.893746
     35          1           0        7.828709    0.350544    0.000385
 ---------------------------------------------------------------------

 SCF Done:  E(RCAM-B3LYP) =  -857.969049389     A.U. after   14 cycles

 Excitation energies and oscillator strengths:

 Excited State   1:      Singlet-A      3.0705 eV  403.79 nm  f=0.0000  <S**2>=0.000
      68 -> 71         0.68668
      68 -> 75         0.11316
 This state for optimization and/or second-order correction.
 Total Energy, E(TD-HF/TD-DFT) =  -857.856209875
 Copying the excited state density for this state as the 1-particle RhoCI density.

 Excited State   2:      Singlet-A      3.5863 eV  345.72 nm  f=1.1303  <S**2>=0.000
      70 -> 71         0.69456

 Excited State   3:      Singlet-A      4.6669 eV  265.67 nm  f=0.0036  <S**2>=0.000
      67 -> 72        -0.11587
      69 -> 71         0.51659
      69 -> 72        -0.12692
      70 -> 72        -0.40589

 Excited State   4:      Singlet-A      4.8178 eV  257.35 nm  f=0.0235  <S**2>=0.000
      66 -> 71        -0.33288
      66 -> 75         0.11330
      67 -> 71         0.28209
      67 -> 73        -0.23626
      70 -> 72        -0.11909
      70 -> 73         0.43827

 Excited State   5:      Singlet-A      4.9301 eV  251.48 nm  f=0.0602  <S**2>=0.000
      66 -> 71         0.20908
      67 -> 71         0.47280
      67 -> 72        -0.10530
      69 -> 72         0.19471
      70 -> 72        -0.27009
      70 -> 73        -0.22912
      70 -> 74         0.13094

 Excited State   6:      Singlet-A      5.0834 eV  243.90 nm  f=0.1268  <S**2>=0.000
      67 -> 71         0.27247
      67 -> 72         0.12063
      69 -> 71         0.44081
      70 -> 72         0.42814

 Excited State   7:      Singlet-A      5.3207 eV  233.02 nm  f=0.0445  <S**2>=0.000
      65 -> 71        -0.11926
      67 -> 71        -0.29276
      67 -> 74         0.18228
      69 -> 71         0.11315
      69 -> 72         0.48233
      70 -> 74         0.29015

 Excited State   8:      Singlet-A      5.6758 eV  218.44 nm  f=0.1644  <S**2>=0.000
      66 -> 71         0.56272
      67 -> 73        -0.10039
      70 -> 73         0.39808

 Excited State   9:      Singlet-A      5.9401 eV  208.73 nm  f=0.0000  <S**2>=0.000
      68 -> 72         0.64453
      68 -> 73        -0.23762

 Excited State  10:      Singlet-A      6.0201 eV  205.95 nm  f=0.1230  <S**2>=0.000
      65 -> 71         0.45621
      66 -> 73        -0.13761
      67 -> 72         0.14147
      69 -> 72        -0.14416
      70 -> 74         0.44037

 Excited State  11:      Singlet-A      6.0274 eV  205.70 nm  f=0.0001  <S**2>=0.000
      68 -> 72         0.22564
      68 -> 73         0.65848

 Excited State  12:      Singlet-A      6.2216 eV  199.28 nm  f=0.3632  <S**2>=0.000
      65 -> 71         0.45427
      69 -> 72         0.34390
      70 -> 74        -0.36776

 Excited State  13:      Singlet-A      6.4053 eV  193.57 nm  f=0.0186  <S**2>=0.000
      65 -> 71        -0.15440
      65 -> 72        -0.14332
      66 -> 73        -0.28530
      67 -> 72         0.29162
      67 -> 75        -0.11390
      69 -> 74        -0.24411
      70 -> 72        -0.12262
      70 -> 75         0.40050

 Excited State  14:      Singlet-A      6.4726 eV  191.55 nm  f=0.0002  <S**2>=0.000
      65 -> 72         0.23547
      66 -> 73        -0.23264
      67 -> 72        -0.28115
      67 -> 74        -0.12545
      69 -> 74         0.36577
      69 -> 75        -0.10046
      70 -> 72         0.11592
      70 -> 75         0.33403

 Excited State  15:      Singlet-A      6.6381 eV  186.78 nm  f=0.0184  <S**2>=0.000
      65 -> 73         0.17762
      67 -> 73         0.59034
      70 -> 73         0.28569

 Excited State  16:      Singlet-A      6.8238 eV  181.69 nm  f=0.0000  <S**2>=0.000
      59 -> 71         0.10243
      60 -> 71         0.10210
      61 -> 71         0.10722
      63 -> 71        -0.20275
      68 -> 74         0.38266
      68 -> 75         0.48278
      68 -> 94         0.10822

 Excited State  17:      Singlet-A      6.9085 eV  179.47 nm  f=0.7569  <S**2>=0.000
      66 -> 73         0.33472
      67 -> 72         0.38632
      69 -> 74         0.40615
      70 -> 75         0.14022

 Excited State  18:      Singlet-A      6.9291 eV  178.93 nm  f=0.0033  <S**2>=0.000
      67 -> 76         0.14581
      67 -> 77        -0.11897
      70 -> 76         0.63625
      70 -> 77         0.10899
      70 -> 79        -0.12916

 Excited State  19:      Singlet-A      7.0307 eV  176.35 nm  f=0.3736  <S**2>=0.000
      66 -> 73         0.43736
      67 -> 72        -0.22780
      69 -> 74        -0.26303
      70 -> 75         0.36213

 Excited State  20:      Singlet-A      7.0985 eV  174.66 nm  f=0.0152  <S**2>=0.000
      67 -> 76        -0.16649
      67 -> 77        -0.13778
      70 -> 76        -0.12948
      70 -> 77         0.57963
      70 -> 78        -0.17689
      70 -> 81         0.10691

 The electronic state is 1-A.
 Alpha  occ. eigenvalues --  -19.22735 -14.44760 -14.42983 -14.42036 -10.31563
 Alpha  occ. eigenvalues --  -10.29375 -10.29188 -10.28547 -10.28439 -10.27092
 Alpha  occ. eigenvalues --  -10.26722 -10.25380 -10.25237 -10.25227 -10.25186
 Alpha  occ. eigenvalues --  -10.24928 -10.24871 -10.24761 -10.24650 -10.24284
 Alpha  occ. eigenvalues --   -1.15903  -1.12047  -1.09080  -0.95654  -0.94172
 Alpha  occ. eigenvalues --   -0.90883  -0.86425  -0.84258  -0.83761  -0.82162
 Alpha  occ. eigenvalues --   -0.80844  -0.77654  -0.73431  -0.70501  -0.70025
 Alpha  occ. eigenvalues --   -0.68055  -0.65616  -0.63795  -0.61583  -0.59747
 Alpha  occ. eigenvalues --   -0.57531  -0.56535  -0.55926  -0.55159  -0.54674
 Alpha  occ. eigenvalues --   -0.53539  -0.52327  -0.51884  -0.50838  -0.50579
 Alpha  occ. eigenvalues --   -0.49962  -0.49934  -0.48065  -0.47605  -0.47021
 Alpha  occ. eigenvalues --   -0.47007  -0.44922  -0.44662  -0.43155  -0.42477
 Alpha  occ. eigenvalues --   -0.41264  -0.41174  -0.39795  -0.39331  -0.34302
 Alpha  occ. eigenvalues --   -0.32237  -0.29633  -0.29493  -0.29164  -0.24936
 Alpha virt. eigenvalues --   -0.02948   0.02127   0.03081   0.05604   0.08104
 Alpha virt. eigenvalues --    0.08731   0.09356   0.10187   0.11036   0.11706
 Alpha virt. eigenvalues --    0.12257   0.13774   0.14085   0.15037   0.15513

 Mulliken charges:
               1
     1  C   -0.087493
     2  C    0.201274
     3  C   -0.074145
     4  C   -0.130902
     5  C   -0.132638
     6  C   -0.077740
     7  C   -0.078264
     8  C    0.166320
     9  H    0.129279
    10  H    0.118831
    11  H    0.115831
    12  H    0.111705
    13  H    0.144171
    14  N   -0.433157
    15  C   -0.165883
    16  H    0.147558
    17  H    0.142798
    18  H    0.147549
    19  N   -0.175634
    20  N   -0.227453
    21  C   -0.005023
    22  C   -0.048724
    23  C   -0.074249
    24  C   -0.117809
    25  H    0.116210
    26  C   -0.156438
    27  H    0.124100
    28  C    0.161456
    29  H    0.123893
    30  H    0.139222
    31  O   -0.347978
    32  C   -0.158664
    33  H    0.129418
    34  H    0.129417
    35  H    0.143162
 Sum of Mulliken charges =  -0.00000

 Dipole moment (field-independent basis, Debye):
    X=             -2.4790    Y=             -1.2710    Z=              0.0011  Tot=              2.7858
 Quadrupole moment (field-independent basis, Debye-Ang):
   XX=            -67.3971   YY=            -99.5967   ZZ=           -122.8296
   XY=             24.5913   XZ=              0.0060   YZ=              0.0032

 Normal termination of Gaussian 16 at Wed Dec 18 00:16:47 2024.
