 Gaussian 16, Revision C.01,
 Gaussian 16:  ES64L-G16RevC.01  3-Jul-2019

 ----------------------------------------------------------------------
 # CAM-B3LYP/6-311G(d,p) td(nstates=20, singlets) scrf=(solvent=acetoni
 trile) EmpiricalDispersion=GD3BJ
 ----------------------------------------------------------------------

 -
 -
 -
 Symbolic Z-matrix:
 Charge =  0 Multiplicity = 1

                         Standard orientation:
 ---------------------------------------------------------------------
 Center     Atomic      Atomic             Coordinates (Angstroms)
 Number     Number       Type             X           Y           Z
 ---------------------------------------------------------------------
      1          6           0       -2.676053   -0.588016   -0.000023
      2          6           0       -3.825811    0.226872   -0.000002
      3          6           0       -5.113986   -0.304213    0.000027
      4          6           0       -5.231564   -1.680926    0.000024
      5          6           0       -4.096922   -2.509385   -0.000005
      6          6           0       -2.822321   -1.977827   -0.000028
      7          6           0       -1.548316    0.303982   -0.000038
      8          6           0       -2.054376    1.588052   -0.000022
      9          1           0       -5.989295    0.332845    0.000056
     10          1           0       -6.216979   -2.130316    0.000046
     11          1           0       -4.228990   -3.584548   -0.000006
     12          1           0       -1.950665   -2.620296   -0.000048
     13          1           0       -1.526824    2.527252   -0.000030
     14          7           0       -3.412243    1.546483   -0.000012
     15          6           0       -4.298153    2.694412    0.000101
     16          1           0       -4.930471    2.687663    0.888980
     17          1           0       -3.698572    3.601222   -0.000297
     18          1           0       -4.931097    2.687313   -0.888326
     19          7           0       -0.232262   -0.129691   -0.000074
     20          7           0        0.634661    0.771133   -0.000095
     21          6           0        1.973111    0.318946   -0.000045
     22          6           0        2.360046   -1.026654    0.000056
     23          6           0        2.953088    1.301559   -0.000102
     24          6           0        3.693653   -1.362495    0.000096
     25          1           0        1.597447   -1.792722    0.000100
     26          6           0        4.302618    0.974240   -0.000065
     27          1           0        2.641832    2.338754   -0.000179
     28          6           0        4.677597   -0.365666    0.000036
     29          1           0        4.011930   -2.397416    0.000174
     30          1           0        5.041207    1.762499   -0.000115
     31          8           0        5.956993   -0.803431    0.000082
     32          6           0        6.999555    0.160976    0.000027
     33          1           0        6.955942    0.789716   -0.892970
     34          1           0        6.955916    0.789848    0.892929
     35          1           0        7.928585   -0.402995    0.000083
 ---------------------------------------------------------------------

 SCF Done:  E(RCAM-B3LYP) =  -857.965994295     A.U. after   14 cycles

 Excitation energies and oscillator strengths:

 Excited State   1:      Singlet-A      2.9735 eV  416.96 nm  f=0.0000  <S**2>=0.000
      67 -> 71         0.68953
      67 -> 75         0.10780
 This state for optimization and/or second-order correction.
 Total Energy, E(TD-HF/TD-DFT) =  -857.856719193
 Copying the excited state density for this state as the 1-particle RhoCI density.

 Excited State   2:      Singlet-A      3.4104 eV  363.54 nm  f=0.9844  <S**2>=0.000
      70 -> 71         0.69604

 Excited State   3:      Singlet-A      4.5985 eV  269.62 nm  f=0.0621  <S**2>=0.000
      68 -> 72        -0.10598
      69 -> 71         0.62183
      69 -> 72        -0.12472
      70 -> 72         0.21957

 Excited State   4:      Singlet-A      4.7598 eV  260.48 nm  f=0.0266  <S**2>=0.000
      66 -> 71        -0.23232
      68 -> 71         0.42721
      68 -> 73        -0.18521
      70 -> 72         0.34223
      70 -> 73        -0.28051

 Excited State   5:      Singlet-A      4.8612 eV  255.05 nm  f=0.1224  <S**2>=0.000
      66 -> 71         0.35906
      68 -> 71         0.32006
      68 -> 73         0.19139
      70 -> 72         0.23454
      70 -> 73         0.36434

 Excited State   6:      Singlet-A      5.0361 eV  246.19 nm  f=0.1054  <S**2>=0.000
      68 -> 71        -0.41977
      68 -> 72        -0.13259
      69 -> 71        -0.23011
      70 -> 72         0.46523

 Excited State   7:      Singlet-A      5.2604 eV  235.69 nm  f=0.0049  <S**2>=0.000
      68 -> 74         0.19071
      69 -> 71         0.20616
      69 -> 72         0.49809
      70 -> 74        -0.34936

 Excited State   8:      Singlet-A      5.6028 eV  221.29 nm  f=0.2377  <S**2>=0.000
      66 -> 71         0.54300
      68 -> 73        -0.12986
      70 -> 73        -0.42001

 Excited State   9:      Singlet-A      6.0581 eV  204.66 nm  f=0.0000  <S**2>=0.000
      67 -> 72        -0.22556
      67 -> 73         0.66356

 Excited State  10:      Singlet-A      6.0673 eV  204.35 nm  f=0.2013  <S**2>=0.000
      65 -> 71         0.55656
      66 -> 73        -0.12987
      68 -> 72         0.10337
      69 -> 72        -0.15277
      70 -> 74        -0.31908

 Excited State  11:      Singlet-A      6.1553 eV  201.43 nm  f=0.3957  <S**2>=0.000
      65 -> 71         0.29613
      68 -> 72         0.13980
      69 -> 72         0.35649
      70 -> 74         0.44434
      70 -> 75        -0.16099

 Excited State  12:      Singlet-A      6.1883 eV  200.35 nm  f=0.0002  <S**2>=0.000
      67 -> 72         0.63474
      67 -> 73         0.22363
      67 -> 75        -0.14294
      67 -> 83        -0.11955

 Excited State  13:      Singlet-A      6.3354 eV  195.70 nm  f=0.0173  <S**2>=0.000
      65 -> 71         0.23472
      66 -> 73         0.29412
      68 -> 72        -0.21358
      68 -> 75         0.16325
      69 -> 72         0.11533
      69 -> 74         0.15844
      70 -> 75         0.45638

 Excited State  14:      Singlet-A      6.5086 eV  190.49 nm  f=0.0526  <S**2>=0.000
      65 -> 72         0.23336
      66 -> 73        -0.15625
      68 -> 72        -0.26061
      69 -> 74         0.48831
      70 -> 72        -0.14103
      70 -> 75        -0.23607

 Excited State  15:      Singlet-A      6.5877 eV  188.21 nm  f=0.0278  <S**2>=0.000
      65 -> 73         0.17558
      68 -> 73         0.56375
      69 -> 73        -0.14529
      70 -> 73        -0.30345

 Excited State  16:      Singlet-A      6.8843 eV  180.10 nm  f=0.0052  <S**2>=0.000
      68 -> 76        -0.16045
      70 -> 76         0.65174
      70 -> 79        -0.10044

 Excited State  17:      Singlet-A      6.9084 eV  179.47 nm  f=0.0004  <S**2>=0.000
      57 -> 71        -0.12841
      59 -> 71         0.18488
      60 -> 71         0.15170
      63 -> 71        -0.32613
      67 -> 71        -0.10779
      67 -> 72         0.11469
      67 -> 75         0.49819

 Excited State  18:      Singlet-A      6.9191 eV  179.19 nm  f=0.7759  <S**2>=0.000
      65 -> 72        -0.14034
      66 -> 73         0.38488
      68 -> 72         0.39689
      69 -> 74         0.34734
      70 -> 75        -0.13374

 Excited State  19:      Singlet-A      7.0067 eV  176.95 nm  f=0.1439  <S**2>=0.000
      65 -> 71         0.10169
      66 -> 73         0.41884
      68 -> 72        -0.28191
      69 -> 74        -0.23965
      70 -> 75        -0.37207

 Excited State  20:      Singlet-A      7.0976 eV  174.68 nm  f=0.0094  <S**2>=0.000
      68 -> 77         0.12626
      70 -> 77         0.48651
      70 -> 78        -0.39338

 The electronic state is 1-A.
 Alpha  occ. eigenvalues --  -19.22822 -14.44865 -14.43104 -14.42356 -10.31691
 Alpha  occ. eigenvalues --  -10.29416 -10.28951 -10.28516 -10.28236 -10.27215
 Alpha  occ. eigenvalues --  -10.26540 -10.25502 -10.25309 -10.25225 -10.25073
 Alpha  occ. eigenvalues --  -10.25005 -10.24956 -10.24847 -10.24654 -10.24346
 Alpha  occ. eigenvalues --   -1.15999  -1.12243  -1.09002  -0.95755  -0.94249
 Alpha  occ. eigenvalues --   -0.90722  -0.86484  -0.84338  -0.83824  -0.81583
 Alpha  occ. eigenvalues --   -0.81217  -0.77684  -0.73560  -0.70474  -0.70135
 Alpha  occ. eigenvalues --   -0.67195  -0.66731  -0.63719  -0.61643  -0.59882
 Alpha  occ. eigenvalues --   -0.57935  -0.56741  -0.55132  -0.55114  -0.54735
 Alpha  occ. eigenvalues --   -0.54422  -0.52397  -0.51178  -0.50716  -0.50646
 Alpha  occ. eigenvalues --   -0.50289  -0.50028  -0.48142  -0.47798  -0.47083
 Alpha  occ. eigenvalues --   -0.46695  -0.45040  -0.45002  -0.43221  -0.42499
 Alpha  occ. eigenvalues --   -0.41081  -0.40853  -0.39872  -0.39391  -0.34517
 Alpha  occ. eigenvalues --   -0.32333  -0.29825  -0.29551  -0.29048  -0.24875
 Alpha virt. eigenvalues --   -0.03402   0.02226   0.03010   0.05660   0.07686
 Alpha virt. eigenvalues --    0.08737   0.09403   0.09921   0.11034   0.11597
 Alpha virt. eigenvalues --    0.12483   0.13451   0.14800   0.14888   0.15288

 Mulliken charges:
               1
     1  C   -0.111142
     2  C    0.206406
     3  C   -0.071840
     4  C   -0.135740
     5  C   -0.135158
     6  C   -0.074043
     7  C   -0.058398
     8  C    0.163246
     9  H    0.128047
    10  H    0.118335
    11  H    0.116853
    12  H    0.109444
    13  H    0.139957
    14  N   -0.430595
    15  C   -0.165730
    16  H    0.147574
    17  H    0.142421
    18  H    0.147566
    19  N   -0.184688
    20  N   -0.213922
    21  C   -0.009514
    22  C   -0.047028
    23  C   -0.072561
    24  C   -0.117599
    25  H    0.122480
    26  C   -0.154587
    27  H    0.115358
    28  C    0.162277
    29  H    0.124653
    30  H    0.140296
    31  O   -0.346889
    32  C   -0.158957
    33  H    0.129941
    34  H    0.129941
    35  H    0.143597
 Sum of Mulliken charges =  -0.00000

 Dipole moment (field-independent basis, Debye):
    X=             -0.9375    Y=              4.5766    Z=              0.0002  Tot=              4.6716
 Quadrupole moment (field-independent basis, Debye-Ang):
   XX=            -69.8961   YY=            -99.9035   ZZ=           -122.7767
   XY=             -4.5575   XZ=             -0.0011   YZ=             -0.0001

 Normal termination of Gaussian 16 at Wed Dec 18 00:12:04 2024.
