 Gaussian 16, Revision C.01,
 Gaussian 16:  ES64L-G16RevC.01  3-Jul-2019

 ----------------------------------------------------------------------
 # opt CAM-B3LYP/6-311G(d,p) scrf=(solvent=acetonitrile) EmpiricalDispe
 rsion=GD3BJ
 ----------------------------------------------------------------------

 -
 -
 -
 Symbolic Z-matrix:
 Charge =  0 Multiplicity = 1

 SCF Done:  E(RCAM-B3LYP) =  -857.969031458     A.U. after   14 cycles
 SCF Done:  E(RCAM-B3LYP) =  -857.969044886     A.U. after    9 cycles
 SCF Done:  E(RCAM-B3LYP) =  -857.969049176     A.U. after    8 cycles
 SCF Done:  E(RCAM-B3LYP) =  -857.969049358     A.U. after    7 cycles
 SCF Done:  E(RCAM-B3LYP) =  -857.969049389     A.U. after    6 cycles
 Optimization completed.
    -- Stationary point found.

                         Standard orientation:
 ---------------------------------------------------------------------
 Center     Atomic      Atomic             Coordinates (Angstroms)
 Number     Number       Type             X           Y           Z
 ---------------------------------------------------------------------
      1          6           0       -2.438497    0.432045   -0.000063
      2          6           0       -3.769222   -0.038793   -0.000015
      3          6           0       -4.864932    0.818821   -0.000155
      4          6           0       -4.608407    2.177575   -0.000332
      5          6           0       -3.294501    2.667100   -0.000375
      6          6           0       -2.208383    1.811135   -0.000244
      7          6           0       -1.604801   -0.748366    0.000096
      8          6           0       -2.452122   -1.835322    0.000212
      9          1           0       -5.878993    0.439669   -0.000135
     10          1           0       -5.437002    2.875103   -0.000444
     11          1           0       -3.129972    3.737821   -0.000517
     12          1           0       -1.196137    2.187166   -0.000280
     13          1           0       -2.196578   -2.883232    0.000346
     14          7           0       -3.743530   -1.423519    0.000171
     15          6           0       -4.915048   -2.277361    0.000214
     16          1           0       -5.520383   -2.094629   -0.888703
     17          1           0       -4.593208   -3.315862    0.000771
     18          1           0       -5.520848   -2.093841    0.888648
     19          7           0       -0.235617   -0.915855    0.000149
     20          7           0        0.439934    0.138398    0.000125
     21          6           0        1.841574   -0.053524    0.000018
     22          6           0        2.473952   -1.302564   -0.000748
     23          6           0        2.621383    1.094499    0.000666
     24          6           0        3.847241   -1.383784   -0.000809
     25          1           0        1.867890   -2.197624   -0.001294
     26          6           0        4.008599    1.024482    0.000636
     27          1           0        2.125309    2.057261    0.001222
     28          6           0        4.627726   -0.221386   -0.000103
     29          1           0        4.352744   -2.341350   -0.001418
     30          1           0        4.586802    1.937007    0.001173
     31          8           0        5.967206   -0.412393   -0.000235
     32          6           0        6.810286    0.730135    0.000539
     33          1           0        6.649784    1.340449   -0.891941
     34          1           0        6.649639    1.339345    0.893746
     35          1           0        7.828709    0.350544    0.000385
 ---------------------------------------------------------------------

 The electronic state is 1-A.
 Alpha  occ. eigenvalues --  -19.22735 -14.44760 -14.42983 -14.42036 -10.31563
 Alpha  occ. eigenvalues --  -10.29375 -10.29188 -10.28547 -10.28439 -10.27092
 Alpha  occ. eigenvalues --  -10.26722 -10.25380 -10.25237 -10.25227 -10.25186
 Alpha  occ. eigenvalues --  -10.24928 -10.24871 -10.24761 -10.24650 -10.24284
 Alpha  occ. eigenvalues --   -1.15903  -1.12047  -1.09080  -0.95654  -0.94172
 Alpha  occ. eigenvalues --   -0.90883  -0.86425  -0.84258  -0.83761  -0.82162
 Alpha  occ. eigenvalues --   -0.80844  -0.77654  -0.73431  -0.70501  -0.70025
 Alpha  occ. eigenvalues --   -0.68055  -0.65616  -0.63795  -0.61583  -0.59747
 Alpha  occ. eigenvalues --   -0.57531  -0.56535  -0.55926  -0.55159  -0.54674
 Alpha  occ. eigenvalues --   -0.53539  -0.52327  -0.51884  -0.50838  -0.50579
 Alpha  occ. eigenvalues --   -0.49962  -0.49934  -0.48065  -0.47605  -0.47021
 Alpha  occ. eigenvalues --   -0.47007  -0.44922  -0.44662  -0.43155  -0.42477
 Alpha  occ. eigenvalues --   -0.41264  -0.41174  -0.39795  -0.39331  -0.34302
 Alpha  occ. eigenvalues --   -0.32237  -0.29633  -0.29493  -0.29164  -0.24936
 Alpha virt. eigenvalues --   -0.02948   0.02127   0.03081   0.05604   0.08104
 Alpha virt. eigenvalues --    0.08731   0.09356   0.10187   0.11036   0.11706
 Alpha virt. eigenvalues --    0.12257   0.13774   0.14086   0.15037   0.15513

 Mulliken charges:
               1
     1  C   -0.087493
     2  C    0.201274
     3  C   -0.074145
     4  C   -0.130902
     5  C   -0.132638
     6  C   -0.077740
     7  C   -0.078264
     8  C    0.166320
     9  H    0.129279
    10  H    0.118830
    11  H    0.115831
    12  H    0.111705
    13  H    0.144171
    14  N   -0.433157
    15  C   -0.165883
    16  H    0.147558
    17  H    0.142798
    18  H    0.147549
    19  N   -0.175634
    20  N   -0.227453
    21  C   -0.005022
    22  C   -0.048724
    23  C   -0.074249
    24  C   -0.117809
    25  H    0.116210
    26  C   -0.156438
    27  H    0.124100
    28  C    0.161456
    29  H    0.123893
    30  H    0.139222
    31  O   -0.347979
    32  C   -0.158664
    33  H    0.129418
    34  H    0.129417
    35  H    0.143162
 Sum of Mulliken charges =  -0.00000

 Dipole moment (field-independent basis, Debye):
    X=             -2.4790    Y=             -1.2710    Z=              0.0011  Tot=              2.7858
 Quadrupole moment (field-independent basis, Debye-Ang):
   XX=            -67.3971   YY=            -99.5967   ZZ=           -122.8296
   XY=             24.5913   XZ=              0.0060   YZ=              0.0032

 Normal termination of Gaussian 16 at Wed Aug 30 15:52:53 2023.
