 Gaussian 16, Revision C.01,
 Gaussian 16:  ES64L-G16RevC.01  3-Jul-2019

 ----------------------------------------------------------------------
 # CAM-B3LYP/6-311G(d,p) opt=modredundant scrf=(solvent=acetonitrile) E
 mpiricalDispersion=GD3BJ
 ----------------------------------------------------------------------

 -
 -
 -
 Symbolic Z-matrix:
 Charge =  0 Multiplicity = 1

 SCF Done:  E(RCAM-B3LYP) =  -897.278860632     A.U. after   14 cycles
 SCF Done:  E(RCAM-B3LYP) =  -897.278870050     A.U. after    9 cycles
 SCF Done:  E(RCAM-B3LYP) =  -897.278874547     A.U. after    8 cycles
 SCF Done:  E(RCAM-B3LYP) =  -897.278874670     A.U. after    7 cycles
 Optimization completed.
    -- Stationary point found.

                         Standard orientation:
 ---------------------------------------------------------------------
 Center     Atomic      Atomic             Coordinates (Angstroms)
 Number     Number       Type             X           Y           Z
 ---------------------------------------------------------------------
      1          6           0       -2.347027   -0.637907    0.006139
      2          6           0       -3.654826   -0.112983    0.004877
      3          6           0       -4.784370   -0.922352    0.017378
      4          6           0       -4.586208   -2.292800    0.031636
      5          6           0       -3.295660   -2.835826    0.033209
      6          6           0       -2.174002   -2.023991    0.020466
      7          6           0       -1.467022    0.507814   -0.008038
      8          1           0       -5.781832   -0.501619    0.016140
      9          1           0       -5.444110   -2.953903    0.041752
     10          1           0       -3.174656   -3.912349    0.044520
     11          1           0       -1.178188   -2.441386    0.021136
     12          6           0       -4.728122    2.146404   -0.015696
     13          1           0       -5.338869    1.962423   -0.900854
     14          1           0       -5.334459    1.979806    0.875909
     15          1           0       -4.402025    3.182074   -0.026547
     16          6           0       -2.261829    1.644820   -0.017619
     17          6           0       -1.825256    3.063863   -0.034617
     18          1           0       -2.188657    3.602435    0.843660
     19          1           0       -0.738755    3.099546   -0.039386
     20          1           0       -2.195298    3.582922   -0.921827
     21          7           0       -0.095387    0.604800   -0.011606
     22          7           0        0.531881   -0.480701   -0.009797
     23          6           0        1.941571   -0.354135   -0.006994
     24          6           0        2.667327   -1.544234   -0.070202
     25          6           0        2.634359    0.851737    0.059356
     26          6           0        4.046952   -1.532380   -0.073576
     27          1           0        2.124398   -2.480149   -0.118952
     28          6           0        4.019706    0.875836    0.058468
     29          1           0        2.076025    1.775907    0.113608
     30          6           0        4.735017   -0.320299   -0.009624
     31          1           0        4.618091   -2.450561   -0.124430
     32          1           0        4.531301    1.826152    0.112441
     33          8           0        6.086767   -0.402867   -0.016947
     34          6           0        6.836707    0.800994    0.044574
     35          1           0        6.632849    1.347955    0.968773
     36          1           0        7.881970    0.503590    0.024561
     37          1           0        6.625810    1.443452   -0.814317
     38          7           0       -3.572442    1.271512   -0.009891
 ---------------------------------------------------------------------

 The electronic state is 1-A.
 Alpha  occ. eigenvalues --  -19.22603 -14.44347 -14.42765 -14.41596 -10.31410
 Alpha  occ. eigenvalues --  -10.30157 -10.29335 -10.28394 -10.28216 -10.26961
 Alpha  occ. eigenvalues --  -10.26238 -10.25160 -10.25117 -10.25066 -10.24984
 Alpha  occ. eigenvalues --  -10.24965 -10.24925 -10.24642 -10.24583 -10.24448
 Alpha  occ. eigenvalues --  -10.24123  -1.15754  -1.11717  -1.08872  -0.95524
 Alpha  occ. eigenvalues --   -0.94075  -0.91070  -0.86190  -0.85455  -0.84242
 Alpha  occ. eigenvalues --   -0.83123  -0.81113  -0.78468  -0.77010  -0.73015
 Alpha  occ. eigenvalues --   -0.70163  -0.68744  -0.67580  -0.64933  -0.63277
 Alpha  occ. eigenvalues --   -0.61443  -0.59447  -0.57850  -0.56305  -0.55631
 Alpha  occ. eigenvalues --   -0.54591  -0.54561  -0.53303  -0.52231  -0.51735
 Alpha  occ. eigenvalues --   -0.50703  -0.50530  -0.50118  -0.49491  -0.48916
 Alpha  occ. eigenvalues --   -0.47930  -0.47353  -0.46565  -0.46475  -0.46136
 Alpha  occ. eigenvalues --   -0.44800  -0.44420  -0.42991  -0.42068  -0.41005
 Alpha  occ. eigenvalues --   -0.40388  -0.39684  -0.39144  -0.34048  -0.32145
 Alpha  occ. eigenvalues --   -0.29480  -0.29176  -0.28652  -0.24554
 Alpha virt. eigenvalues --   -0.02759   0.02311   0.03280   0.05693   0.08148
 Alpha virt. eigenvalues --    0.08267   0.09414   0.09687   0.10699   0.11612
 Alpha virt. eigenvalues --    0.12613   0.13645   0.13688   0.14769   0.15261

 Mulliken charges:
               1
     1  C   -0.061653
     2  C    0.198384
     3  C   -0.084705
     4  C   -0.131731
     5  C   -0.134349
     6  C   -0.078476
     7  C   -0.089234
     8  H    0.127900
     9  H    0.117065
    10  H    0.114358
    11  H    0.109784
    12  C   -0.174621
    13  H    0.147561
    14  H    0.147529
    15  H    0.147305
    16  C    0.219257
    17  C   -0.279606
    18  H    0.149026
    19  H    0.144394
    20  H    0.149081
    21  N   -0.180429
    22  N   -0.234592
    23  C   -0.008489
    24  C   -0.077586
    25  C   -0.053324
    26  C   -0.118986
    27  H    0.122042
    28  C   -0.158120
    29  H    0.129766
    30  C    0.162843
    31  H    0.120714
    32  H    0.138621
    33  O   -0.349824
    34  C   -0.158354
    35  H    0.128734
    36  H    0.142783
    37  H    0.128674
    38  N   -0.471742
 Sum of Mulliken charges =  -0.00000

 Dipole moment (field-independent basis, Debye):
    X=             -2.6353    Y=              5.7211    Z=              0.0752  Tot=              6.2994
 Quadrupole moment (field-independent basis, Debye-Ang):
   XX=            -79.9812   YY=           -104.9097   ZZ=           -128.9701
   XY=             -3.0199   XZ=              0.6835   YZ=              0.3074

 Normal termination of Gaussian 16 at Wed Aug 23 19:21:20 2023.
