 Gaussian 16, Revision C.01,
 Gaussian 16:  ES64L-G16RevC.01  3-Jul-2019

 ----------------------------------------------------------------------
 # CAM-B3LYP/6-311G(d,p) opt=modredundant scrf=(solvent=acetonitrile) E
 mpiricalDispersion=GD3BJ
 ----------------------------------------------------------------------

 -
 -
 -
 Symbolic Z-matrix:
 Charge =  0 Multiplicity = 1

 SCF Done:  E(RCAM-B3LYP) =  -897.256912433     A.U. after   15 cycles
 SCF Done:  E(RCAM-B3LYP) =  -897.241443332     A.U. after   14 cycles
 SCF Done:  E(RCAM-B3LYP) =  -897.255669385     A.U. after   12 cycles
 SCF Done:  E(RCAM-B3LYP) =  -897.256956775     A.U. after    9 cycles
 SCF Done:  E(RCAM-B3LYP) =  -897.256928459     A.U. after   12 cycles
 SCF Done:  E(RCAM-B3LYP) =  -897.257090511     A.U. after   12 cycles
 SCF Done:  E(RCAM-B3LYP) =  -897.257136154     A.U. after   12 cycles
 SCF Done:  E(RCAM-B3LYP) =  -897.257142825     A.U. after    9 cycles
 SCF Done:  E(RCAM-B3LYP) =  -897.257144182     A.U. after   10 cycles
 SCF Done:  E(RCAM-B3LYP) =  -897.257144422     A.U. after    9 cycles
 SCF Done:  E(RCAM-B3LYP) =  -897.257144491     A.U. after    9 cycles
 SCF Done:  E(RCAM-B3LYP) =  -897.257144515     A.U. after    8 cycles
 Optimization completed.
    -- Stationary point found.

                         Standard orientation:
 ---------------------------------------------------------------------
 Center     Atomic      Atomic             Coordinates (Angstroms)
 Number     Number       Type             X           Y           Z
 ---------------------------------------------------------------------
      1          6           0        1.174939    0.342438   -0.556287
      2          6           0        2.241349    1.131114   -0.073568
      3          6           0        2.275244    2.515478   -0.201214
      4          6           0        1.216769    3.125369   -0.848680
      5          6           0        0.161099    2.364452   -1.363987
      6          6           0        0.131910    0.988366   -1.229285
      7          6           0        1.539030   -1.030208   -0.253176
      8          1           0        3.105930    3.094651    0.181300
      9          1           0        1.210653    4.201884   -0.966985
     10          1           0       -0.651435    2.862766   -1.878666
     11          1           0       -0.694397    0.429842   -1.642407
     12          6           0        4.425177    0.765006    1.089479
     13          1           0        5.092338    1.181701    0.332661
     14          1           0        4.207990    1.531801    1.833492
     15          1           0        4.926396   -0.062199    1.583382
     16          6           0        2.792087   -0.996209    0.343022
     17          6           0        3.611773   -2.148018    0.797022
     18          1           0        3.671889   -2.192094    1.887463
     19          1           0        3.149359   -3.066331    0.443098
     20          1           0        4.629889   -2.086931    0.407724
     21          7           0        1.000725   -2.288888   -0.536219
     22          7           0       -0.207776   -2.567040   -0.677994
     23          6           0       -1.258469   -1.658682   -0.365639
     24          6           0       -2.341309   -1.598634   -1.242444
     25          6           0       -1.321364   -0.963721    0.834897
     26          6           0       -3.427497   -0.796704   -0.960436
     27          1           0       -2.307327   -2.179004   -2.156330
     28          6           0       -2.425025   -0.180592    1.142864
     29          1           0       -0.504934   -1.031178    1.541853
     30          6           0       -3.475740   -0.077228    0.235337
     31          1           0       -4.262940   -0.721339   -1.644694
     32          1           0       -2.448728    0.346918    2.085339
     33          8           0       -4.584802    0.676820    0.430032
     34          6           0       -4.681400    1.432203    1.627779
     35          1           0       -3.864144    2.153941    1.707449
     36          1           0       -5.628006    1.963434    1.571343
     37          1           0       -4.682103    0.782896    2.507308
     38          7           0        3.192272    0.297086    0.487399
 ---------------------------------------------------------------------

 The electronic state is 1-A.
 Alpha  occ. eigenvalues --  -19.22551 -14.44264 -14.43524 -14.42255 -10.31379
 Alpha  occ. eigenvalues --  -10.30030 -10.29319 -10.28396 -10.28301 -10.27402
 Alpha  occ. eigenvalues --  -10.26705 -10.25544 -10.25482 -10.25382 -10.25054
 Alpha  occ. eigenvalues --  -10.25041 -10.24893 -10.24781 -10.24641 -10.24586
 Alpha  occ. eigenvalues --  -10.24144  -1.15710  -1.11549  -1.08918  -0.95546
 Alpha  occ. eigenvalues --   -0.94217  -0.91008  -0.86304  -0.85421  -0.84436
 Alpha  occ. eigenvalues --   -0.83186  -0.80987  -0.78593  -0.77869  -0.72986
 Alpha  occ. eigenvalues --   -0.70360  -0.68841  -0.68499  -0.65235  -0.63689
 Alpha  occ. eigenvalues --   -0.62043  -0.60160  -0.57677  -0.57107  -0.55664
 Alpha  occ. eigenvalues --   -0.55429  -0.54593  -0.53525  -0.52421  -0.51585
 Alpha  occ. eigenvalues --   -0.50956  -0.50351  -0.49970  -0.49108  -0.48816
 Alpha  occ. eigenvalues --   -0.48004  -0.47139  -0.46945  -0.46681  -0.45408
 Alpha  occ. eigenvalues --   -0.45118  -0.44166  -0.42930  -0.42236  -0.41495
 Alpha  occ. eigenvalues --   -0.40141  -0.39775  -0.38269  -0.34280  -0.32004
 Alpha  occ. eigenvalues --   -0.30335  -0.28744  -0.28040  -0.24687
 Alpha virt. eigenvalues --   -0.02003   0.02118   0.02782   0.05786   0.06588
 Alpha virt. eigenvalues --    0.08140   0.09277   0.10144   0.10997   0.11954
 Alpha virt. eigenvalues --    0.12327   0.12856   0.13992   0.15234   0.15468

 Mulliken charges:
               1
     1  C   -0.059829
     2  C    0.203060
     3  C   -0.086593
     4  C   -0.132363
     5  C   -0.142727
     6  C   -0.057033
     7  C   -0.128819
     8  H    0.128300
     9  H    0.117019
    10  H    0.113341
    11  H    0.128153
    12  C   -0.176013
    13  H    0.149233
    14  H    0.145776
    15  H    0.148154
    16  C    0.232507
    17  C   -0.274005
    18  H    0.150322
    19  H    0.135835
    20  H    0.145277
    21  N   -0.188453
    22  N   -0.198232
    23  C   -0.082326
    24  C   -0.075361
    25  C   -0.035415
    26  C   -0.109681
    27  H    0.115127
    28  C   -0.145809
    29  H    0.135620
    30  C    0.162349
    31  H    0.123194
    32  H    0.139559
    33  O   -0.351217
    34  C   -0.159300
    35  H    0.128540
    36  H    0.142598
    37  H    0.128416
    38  N   -0.469208
 Sum of Mulliken charges =  -0.00000

 Dipole moment (field-independent basis, Debye):
    X=              3.7915    Y=              5.0428    Z=              4.6555  Tot=              7.8409
 Quadrupole moment (field-independent basis, Debye-Ang):
   XX=            -92.9675   YY=           -130.1747   ZZ=           -116.5674
   XY=             -3.0583   XZ=              5.2841   YZ=              0.2294

 Normal termination of Gaussian 16 at Wed Aug 23 19:39:02 2023.
