 Gaussian 16, Revision C.01,
 Gaussian 16:  ES64L-G16RevC.01  3-Jul-2019

 ----------------------------------------------------------------------
 # CAM-B3LYP/6-311G(d,p) opt=modredundant scrf=(solvent=acetonitrile) E
 mpiricalDispersion=GD3BJ
 ----------------------------------------------------------------------

 -
 -
 -
 Symbolic Z-matrix:
 Charge =  0 Multiplicity = 1

 SCF Done:  E(RCAM-B3LYP) =  -897.273262965     A.U. after   15 cycles
 SCF Done:  E(RCAM-B3LYP) =  -897.273269783     A.U. after   11 cycles
 SCF Done:  E(RCAM-B3LYP) =  -897.273276043     A.U. after   10 cycles
 SCF Done:  E(RCAM-B3LYP) =  -897.273276367     A.U. after    8 cycles
 SCF Done:  E(RCAM-B3LYP) =  -897.273276539     A.U. after   10 cycles
 SCF Done:  E(RCAM-B3LYP) =  -897.273276644     A.U. after   10 cycles
 SCF Done:  E(RCAM-B3LYP) =  -897.273276702     A.U. after    8 cycles
 SCF Done:  E(RCAM-B3LYP) =  -897.273276751     A.U. after    8 cycles
 Optimization completed.
    -- Stationary point found.

                         Standard orientation:
 ---------------------------------------------------------------------
 Center     Atomic      Atomic             Coordinates (Angstroms)
 Number     Number       Type             X           Y           Z
 ---------------------------------------------------------------------
      1          6           0        2.456288    0.823325   -0.037386
      2          6           0        3.714016    0.197341   -0.003675
      3          6           0        4.903261    0.920375   -0.036254
      4          6           0        4.807834    2.298672   -0.109580
      5          6           0        3.560754    2.939926   -0.148733
      6          6           0        2.383904    2.215227   -0.115142
      7          6           0        1.473394   -0.227418    0.012549
      8          1           0        5.868105    0.431074   -0.000967
      9          1           0        5.713042    2.892841   -0.135503
     10          1           0        3.523405    4.021106   -0.205588
     11          1           0        1.422234    2.711859   -0.146743
     12          6           0        4.569165   -2.149471    0.164560
     13          1           0        5.400882   -1.841948   -0.467239
     14          1           0        4.921122   -2.247997    1.193623
     15          1           0        4.216189   -3.115622   -0.185666
     16          6           0        2.162337   -1.434262    0.087317
     17          6           0        1.652896   -2.824562    0.219839
     18          1           0        2.192397   -3.368960    0.997071
     19          1           0        0.594068   -2.799850    0.454762
     20          1           0        1.771806   -3.376002   -0.717879
     21          7           0        0.122394    0.062518    0.010654
     22          7           0       -0.678928   -0.888948   -0.128346
     23          6           0       -2.046363   -0.526842   -0.084050
     24          6           0       -2.961421   -1.536016   -0.385265
     25          6           0       -2.523067    0.739642    0.242744
     26          6           0       -4.317863   -1.285085   -0.374795
     27          1           0       -2.583995   -2.520392   -0.633446
     28          6           0       -3.883006    1.002295    0.259240
     29          1           0       -1.815199    1.519330    0.487347
     30          6           0       -4.789658   -0.011859   -0.052924
     31          1           0       -5.036337   -2.059504   -0.611011
     32          1           0       -4.226698    1.993185    0.519341
     33          8           0       -6.134196    0.143513   -0.064323
     34          6           0       -6.669603    1.420080    0.251965
     35          1           0       -6.327330    2.179282   -0.455954
     36          1           0       -7.749155    1.317969    0.177885
     37          1           0       -6.402526    1.720874    1.268304
     38          7           0        3.504298   -1.169793    0.065376
 ---------------------------------------------------------------------

 The electronic state is 1-A.
 Alpha  occ. eigenvalues --  -19.22687 -14.44374 -14.42969 -14.42029 -10.31540
 Alpha  occ. eigenvalues --  -10.30114 -10.29369 -10.28344 -10.28046 -10.27087
 Alpha  occ. eigenvalues --  -10.26295 -10.25301 -10.25245 -10.25047 -10.25044
 Alpha  occ. eigenvalues --  -10.24757 -10.24728 -10.24616 -10.24469 -10.24459
 Alpha  occ. eigenvalues --  -10.24154  -1.15848  -1.11904  -1.08765  -0.95618
 Alpha  occ. eigenvalues --   -0.94156  -0.90794  -0.86233  -0.85321  -0.84357
 Alpha  occ. eigenvalues --   -0.83157  -0.81218  -0.78326  -0.77067  -0.72948
 Alpha  occ. eigenvalues --   -0.70154  -0.68673  -0.66868  -0.66202  -0.63363
 Alpha  occ. eigenvalues --   -0.61414  -0.59498  -0.58219  -0.56662  -0.55571
 Alpha  occ. eigenvalues --   -0.54649  -0.54486  -0.53225  -0.52272  -0.51155
 Alpha  occ. eigenvalues --   -0.50737  -0.50396  -0.50186  -0.49792  -0.48607
 Alpha  occ. eigenvalues --   -0.48018  -0.47059  -0.46987  -0.46619  -0.45705
 Alpha  occ. eigenvalues --   -0.44988  -0.44515  -0.43062  -0.42306  -0.40663
 Alpha  occ. eigenvalues --   -0.40222  -0.39758  -0.39163  -0.34313  -0.32246
 Alpha  occ. eigenvalues --   -0.29377  -0.29278  -0.28443  -0.24605
 Alpha virt. eigenvalues --   -0.03079   0.02391   0.03197   0.05826   0.07688
 Alpha virt. eigenvalues --    0.08463   0.09299   0.09893   0.10745   0.11594
 Alpha virt. eigenvalues --    0.12519   0.13776   0.13865   0.14643   0.14808

 Mulliken charges:
               1
     1  C   -0.080813
     2  C    0.201133
     3  C   -0.081952
     4  C   -0.136844
     5  C   -0.137580
     6  C   -0.074296
     7  C   -0.085243
     8  H    0.126665
     9  H    0.116187
    10  H    0.115002
    11  H    0.107706
    12  C   -0.176695
    13  H    0.144060
    14  H    0.151305
    15  H    0.149615
    16  C    0.236394
    17  C   -0.284415
    18  H    0.141716
    19  H    0.140282
    20  H    0.149699
    21  N   -0.184778
    22  N   -0.224667
    23  C   -0.004502
    24  C   -0.075910
    25  C   -0.047236
    26  C   -0.118996
    27  H    0.119518
    28  C   -0.158171
    29  H    0.123855
    30  C    0.163525
    31  H    0.121814
    32  H    0.140273
    33  O   -0.348939
    34  C   -0.158651
    35  H    0.129327
    36  H    0.143171
    37  H    0.129261
    38  N   -0.470818
 Sum of Mulliken charges =  -0.00000

 Dipole moment (field-independent basis, Debye):
    X=              2.1823    Y=             -1.6652    Z=              0.8374  Tot=              2.8699
 Quadrupole moment (field-independent basis, Debye-Ang):
   XX=            -85.8761   YY=           -105.0399   ZZ=           -128.3765
   XY=            -25.2578   XZ=             -1.7845   YZ=              1.1270

 Normal termination of Gaussian 16 at Wed Aug 23 19:30:30 2023.
