 Gaussian 16, Revision C.01,
 Gaussian 16:  ES64L-G16RevC.01  3-Jul-2019

 ----------------------------------------------------------------------
 # CAM-B3LYP/6-311G(d,p) opt=modredundant scrf=(solvent=acetonitrile) E
 mpiricalDispersion=GD3BJ
 ----------------------------------------------------------------------

 -
 -
 -
 Symbolic Z-matrix:
 Charge =  0 Multiplicity = 1

 SCF Done:  E(RCAM-B3LYP) =  -897.253390745     A.U. after   15 cycles
 SCF Done:  E(RCAM-B3LYP) =  -897.247318996     A.U. after   14 cycles
 SCF Done:  E(RCAM-B3LYP) =  -897.253164954     A.U. after   12 cycles
 SCF Done:  E(RCAM-B3LYP) =  -897.253474396     A.U. after    8 cycles
 SCF Done:  E(RCAM-B3LYP) =  -897.253545583     A.U. after   12 cycles
 SCF Done:  E(RCAM-B3LYP) =  -897.253573522     A.U. after   12 cycles
 SCF Done:  E(RCAM-B3LYP) =  -897.253598021     A.U. after   12 cycles
 SCF Done:  E(RCAM-B3LYP) =  -897.253601207     A.U. after   10 cycles
 SCF Done:  E(RCAM-B3LYP) =  -897.253601403     A.U. after    7 cycles
 SCF Done:  E(RCAM-B3LYP) =  -897.253601470     A.U. after    7 cycles
 SCF Done:  E(RCAM-B3LYP) =  -897.253601545     A.U. after    7 cycles
 SCF Done:  E(RCAM-B3LYP) =  -897.253601664     A.U. after    7 cycles
 SCF Done:  E(RCAM-B3LYP) =  -897.253601768     A.U. after    6 cycles
 SCF Done:  E(RCAM-B3LYP) =  -897.253601883     A.U. after    6 cycles
 SCF Done:  E(RCAM-B3LYP) =  -897.253601975     A.U. after    6 cycles
 SCF Done:  E(RCAM-B3LYP) =  -897.253602044     A.U. after    6 cycles
 Optimization completed.
    -- Stationary point found.

                         Standard orientation:
 ---------------------------------------------------------------------
 Center     Atomic      Atomic             Coordinates (Angstroms)
 Number     Number       Type             X           Y           Z
 ---------------------------------------------------------------------
      1          6           0        2.395605   -0.565462   -0.302339
      2          6           0        2.698700    0.725379    0.174803
      3          6           0        3.781522    1.452704   -0.315038
      4          6           0        4.555592    0.863021   -1.297785
      5          6           0        4.263438   -0.420189   -1.785928
      6          6           0        3.186755   -1.137834   -1.301482
      7          6           0        1.219981   -0.989247    0.401258
      8          1           0        4.016957    2.441261    0.057775
      9          1           0        5.405212    1.402742   -1.697873
     10          1           0        4.893711   -0.850580   -2.554602
     11          1           0        2.959517   -2.126652   -1.680659
     12          6           0        1.803382    2.256123    1.944003
     13          1           0        2.448908    2.138725    2.817495
     14          1           0        2.176182    3.078944    1.336723
     15          1           0        0.798919    2.510528    2.273516
     16          6           0        0.884344    0.005347    1.294592
     17          6           0       -0.174636    0.025218    2.337056
     18          1           0       -1.041348    0.609439    2.014843
     19          1           0       -0.518536   -0.986501    2.540418
     20          1           0        0.197329    0.450065    3.270112
     21          7           0        0.686961   -2.286113    0.260576
     22          7           0       -0.531859   -2.523695    0.165442
     23          6           0       -1.519702   -1.501880   -0.001487
     24          6           0       -2.721305   -1.666702    0.684202
     25          6           0       -1.402057   -0.468686   -0.923498
     26          6           0       -3.759373   -0.775411    0.506701
     27          1           0       -2.824204   -2.500748    1.367507
     28          6           0       -2.450697    0.415153   -1.130254
     29          1           0       -0.491996   -0.351482   -1.496333
     30          6           0       -3.630485    0.276437   -0.400732
     31          1           0       -4.689840   -0.881822    1.049387
     32          1           0       -2.336500    1.202950   -1.860673
     33          8           0       -4.701990    1.095745   -0.517348
     34          6           0       -4.625893    2.178697   -1.432420
     35          1           0       -4.487343    1.822971   -2.456694
     36          1           0       -5.576237    2.700737   -1.357444
     37          1           0       -3.814389    2.862331   -1.169770
     38          7           0        1.768978    1.049112    1.141861
 ---------------------------------------------------------------------

 The electronic state is 1-A.
 Alpha  occ. eigenvalues --  -19.22713 -14.44078 -14.43881 -14.43648 -10.31610
 Alpha  occ. eigenvalues --  -10.29617 -10.29406 -10.28238 -10.28079 -10.27798
 Alpha  occ. eigenvalues --  -10.26428 -10.25881 -10.25637 -10.25250 -10.24991
 Alpha  occ. eigenvalues --  -10.24966 -10.24944 -10.24894 -10.24716 -10.24467
 Alpha  occ. eigenvalues --  -10.24103  -1.15886  -1.12463  -1.08473  -0.95766
 Alpha  occ. eigenvalues --   -0.94112  -0.90658  -0.86515  -0.85348  -0.84656
 Alpha  occ. eigenvalues --   -0.83167  -0.81017  -0.78463  -0.77877  -0.73008
 Alpha  occ. eigenvalues --   -0.70312  -0.68763  -0.68400  -0.66099  -0.63928
 Alpha  occ. eigenvalues --   -0.61849  -0.60318  -0.57821  -0.57479  -0.55449
 Alpha  occ. eigenvalues --   -0.55181  -0.54681  -0.53370  -0.52607  -0.51099
 Alpha  occ. eigenvalues --   -0.50997  -0.50513  -0.50205  -0.49477  -0.48840
 Alpha  occ. eigenvalues --   -0.48210  -0.47215  -0.47079  -0.46483  -0.45623
 Alpha  occ. eigenvalues --   -0.45352  -0.44357  -0.43080  -0.42433  -0.40918
 Alpha  occ. eigenvalues --   -0.40105  -0.39729  -0.38685  -0.34494  -0.32449
 Alpha  occ. eigenvalues --   -0.30889  -0.28543  -0.28284  -0.24528
 Alpha virt. eigenvalues --   -0.02292   0.02152   0.02714   0.05806   0.06220
 Alpha virt. eigenvalues --    0.08145   0.09441   0.10145   0.10717   0.11801
 Alpha virt. eigenvalues --    0.12168   0.12346   0.13675   0.14319   0.14639

 Mulliken charges:
               1
     1  C   -0.027604
     2  C    0.194235
     3  C   -0.083777
     4  C   -0.138620
     5  C   -0.137526
     6  C   -0.078494
     7  C   -0.188806
     8  H    0.125779
     9  H    0.116192
    10  H    0.115049
    11  H    0.104364
    12  C   -0.177858
    13  H    0.148167
    14  H    0.142017
    15  H    0.147564
    16  C    0.248703
    17  C   -0.279058
    18  H    0.155884
    19  H    0.140585
    20  H    0.147286
    21  N   -0.165591
    22  N   -0.169115
    23  C   -0.112970
    24  C   -0.050286
    25  C   -0.010293
    26  C   -0.113507
    27  H    0.118296
    28  C   -0.161237
    29  H    0.139375
    30  C    0.167844
    31  H    0.124147
    32  H    0.141728
    33  O   -0.349464
    34  C   -0.159566
    35  H    0.129611
    36  H    0.143430
    37  H    0.128963
    38  N   -0.475443
 Sum of Mulliken charges =  -0.00000

 Dipole moment (field-independent basis, Debye):
    X=             -1.3749    Y=              8.0448    Z=              1.3755  Tot=              8.2766
 Quadrupole moment (field-independent basis, Debye-Ang):
   XX=           -120.4419   YY=           -123.9265   ZZ=           -111.7921
   XY=              1.5567   XZ=              3.2587   YZ=              0.9706

 Normal termination of Gaussian 16 at Wed Aug 23 19:45:27 2023.
