 Gaussian 16, Revision C.01,
 Gaussian 16:  ES64L-G16RevC.01  3-Jul-2019

 ----------------------------------------------------------------------
 # CAM-B3LYP/6-311G(d,p) opt=modredundant scrf=(solvent=acetonitrile) E
 mpiricalDispersion=GD3BJ
 ----------------------------------------------------------------------

 -
 -
 -
 Symbolic Z-matrix:
 Charge =  0 Multiplicity = 1

 SCF Done:  E(RCAM-B3LYP) =  -1088.95970776     A.U. after   14 cycles
 SCF Done:  E(RCAM-B3LYP) =  -1088.95972532     A.U. after   12 cycles
 SCF Done:  E(RCAM-B3LYP) =  -1088.95974339     A.U. after   11 cycles
 SCF Done:  E(RCAM-B3LYP) =  -1088.95974526     A.U. after    8 cycles
 SCF Done:  E(RCAM-B3LYP) =  -1088.95974609     A.U. after   10 cycles
 SCF Done:  E(RCAM-B3LYP) =  -1088.95974633     A.U. after    8 cycles
 SCF Done:  E(RCAM-B3LYP) =  -1088.95974648     A.U. after    7 cycles
 SCF Done:  E(RCAM-B3LYP) =  -1088.95974653     A.U. after    7 cycles
 SCF Done:  E(RCAM-B3LYP) =  -1088.95974657     A.U. after    7 cycles
 SCF Done:  E(RCAM-B3LYP) =  -1088.95974660     A.U. after    6 cycles
 Optimization completed.
    -- Stationary point found.

                         Standard orientation:
 ---------------------------------------------------------------------
 Center     Atomic      Atomic             Coordinates (Angstroms)
 Number     Number       Type             X           Y           Z
 ---------------------------------------------------------------------
      1          6           0        1.747233   -1.834730    0.015107
      2          6           0        3.141201   -1.629494    0.013385
      3          6           0        4.049002   -2.683717   -0.005875
      4          6           0        3.534042   -3.967402   -0.028936
      5          6           0        2.150904   -4.193142   -0.033890
      6          6           0        1.252228   -3.142032   -0.012655
      7          6           0        1.157164   -0.518955    0.038645
      8          6           0        2.195770    0.403895    0.050492
      9          1           0        5.117525   -2.511274   -0.010225
     10          1           0        4.212468   -4.811510   -0.046745
     11          1           0        1.781245   -5.211201   -0.054287
     12          1           0        0.186028   -3.312261   -0.014110
     13          7           0        3.388500   -0.266553    0.038802
     14          6           0        4.720080    0.299046    0.160405
     15          1           0        5.255030    0.251371   -0.789675
     16          1           0        4.647867    1.335360    0.476068
     17          1           0        5.280289   -0.256033    0.912475
     18          7           0       -0.156670   -0.109012    0.005961
     19          7           0       -1.016297   -1.020483    0.030729
     20          6           0       -2.355422   -0.566959   -0.011416
     21          6           0       -2.737854    0.777357   -0.099762
     22          6           0       -3.340422   -1.543265    0.041483
     23          6           0       -4.070537    1.117801   -0.130389
     24          1           0       -1.972580    1.539671   -0.144140
     25          6           0       -4.688705   -1.210803    0.011145
     26          1           0       -3.037467   -2.580852    0.109558
     27          6           0       -5.058641    0.127518   -0.074843
     28          1           0       -4.383842    2.152052   -0.199132
     29          1           0       -5.430551   -1.994901    0.054687
     30          8           0       -6.337376    0.569109   -0.111744
     31          6           0       -7.382479   -0.390522   -0.059675
     32          1           0       -7.333724   -1.074799   -0.910701
     33          1           0       -7.348432   -0.962256    0.871393
     34          1           0       -8.310025    0.174358   -0.102971
     35          6           0        2.096096    1.868985    0.044173
     36          6           0        2.789695    2.628524   -0.899724
     37          6           0        1.275727    2.518558    0.967295
     38          6           0        2.667176    4.009384   -0.916861
     39          1           0        3.411470    2.135022   -1.636520
     40          6           0        1.155951    3.899515    0.948050
     41          1           0        0.735499    1.934194    1.699577
     42          6           0        1.851437    4.648139    0.007573
     43          1           0        3.205884    4.586655   -1.658054
     44          1           0        0.519036    4.392684    1.672017
     45          1           0        1.756691    5.726988   -0.006075
 ---------------------------------------------------------------------

 The electronic state is 1-A.
 Alpha  occ. eigenvalues --  -19.22698 -14.44712 -14.42795 -14.41885 -10.31506
 Alpha  occ. eigenvalues --  -10.30380 -10.29360 -10.28450 -10.28357 -10.27126
 Alpha  occ. eigenvalues --  -10.27031 -10.26774 -10.25764 -10.25561 -10.25403
 Alpha  occ. eigenvalues --  -10.25333 -10.25320 -10.25263 -10.25201 -10.25168
 Alpha  occ. eigenvalues --  -10.25117 -10.24892 -10.24827 -10.24742 -10.24600
 Alpha  occ. eigenvalues --  -10.24257  -1.15861  -1.11947  -1.09081  -0.95999
 Alpha  occ. eigenvalues --   -0.95584  -0.94092  -0.91126  -0.86456  -0.86290
 Alpha  occ. eigenvalues --   -0.84158  -0.84035  -0.83378  -0.81510  -0.80394
 Alpha  occ. eigenvalues --   -0.77583  -0.73579  -0.71648  -0.69976  -0.69727
 Alpha  occ. eigenvalues --   -0.67893  -0.67393  -0.65119  -0.63647  -0.61578
 Alpha  occ. eigenvalues --   -0.60378  -0.59394  -0.57638  -0.56357  -0.55762
 Alpha  occ. eigenvalues --   -0.55331  -0.54648  -0.53819  -0.52725  -0.52320
 Alpha  occ. eigenvalues --   -0.51984  -0.51726  -0.50863  -0.50482  -0.49905
 Alpha  occ. eigenvalues --   -0.49827  -0.49674  -0.48309  -0.47642  -0.47049
 Alpha  occ. eigenvalues --   -0.47013  -0.45196  -0.44876  -0.44807  -0.43091
 Alpha  occ. eigenvalues --   -0.42902  -0.42060  -0.41741  -0.41213  -0.40748
 Alpha  occ. eigenvalues --   -0.39752  -0.39257  -0.34390  -0.32826  -0.32226
 Alpha  occ. eigenvalues --   -0.32173  -0.29577  -0.29210  -0.28441  -0.24665
 Alpha virt. eigenvalues --   -0.03323   0.00780   0.02962   0.03108   0.03928
 Alpha virt. eigenvalues --    0.05715   0.08179   0.08319   0.09286   0.09547
 Alpha virt. eigenvalues --    0.10362   0.11413   0.11553   0.12891   0.13410

 Mulliken charges:
               1
     1  C   -0.064297
     2  C    0.200722
     3  C   -0.087495
     4  C   -0.129094
     5  C   -0.134147
     6  C   -0.072563
     7  C   -0.070970
     8  C    0.292932
     9  H    0.129567
    10  H    0.118273
    11  H    0.115562
    12  H    0.111678
    13  N   -0.477380
    14  C   -0.186988
    15  H    0.152904
    16  H    0.152960
    17  H    0.146282
    18  N   -0.173842
    19  N   -0.229588
    20  C   -0.006905
    21  C   -0.050311
    22  C   -0.076484
    23  C   -0.119594
    24  H    0.124966
    25  C   -0.156800
    26  H    0.123804
    27  C    0.161737
    28  H    0.122881
    29  H    0.138781
    30  O   -0.348279
    31  C   -0.158655
    32  H    0.129272
    33  H    0.129147
    34  H    0.142990
    35  C   -0.124435
    36  C   -0.072854
    37  C   -0.038890
    38  C   -0.112263
    39  H    0.130987
    40  C   -0.121365
    41  H    0.118436
    42  C   -0.106668
    43  H    0.125211
    44  H    0.124842
    45  H    0.125933
 Sum of Mulliken charges =  -0.00000

 Dipole moment (field-independent basis, Debye):
    X=              2.5104    Y=              1.5497    Z=              0.2263  Tot=              2.9589
 Quadrupole moment (field-independent basis, Debye-Ang):
   XX=            -98.1852   YY=           -135.2679   ZZ=           -154.6762
   XY=             14.2142   XZ=             -3.7587   YZ=             -0.3599

 Normal termination of Gaussian 16 at Sun Aug 20 23:18:33 2023.
