 Gaussian 16, Revision C.01,
 Gaussian 16:  ES64L-G16RevC.01  3-Jul-2019

 ----------------------------------------------------------------------
 # CAM-B3LYP/6-311G(d,p) opt=modredundant scrf=(solvent=acetonitrile) E
 mpiricalDispersion=GD3BJ
 ----------------------------------------------------------------------

 ------------
 Optimization
 ------------
 Symbolic Z-matrix:
 Charge =  0 Multiplicity = 1

 SCF Done:  E(RCAM-B3LYP) =  -1088.93575809     A.U. after   14 cycles
 SCF Done:  E(RCAM-B3LYP) =  -1088.92412038     A.U. after   14 cycles
 SCF Done:  E(RCAM-B3LYP) =  -1088.93495265     A.U. after   12 cycles
 SCF Done:  E(RCAM-B3LYP) =  -1088.93583093     A.U. after    9 cycles
 SCF Done:  E(RCAM-B3LYP) =  -1088.93592304     A.U. after   13 cycles
 SCF Done:  E(RCAM-B3LYP) =  -1088.93600231     A.U. after   12 cycles
 SCF Done:  E(RCAM-B3LYP) =  -1088.93599977     A.U. after   11 cycles
 SCF Done:  E(RCAM-B3LYP) =  -1088.93601535     A.U. after   11 cycles
 SCF Done:  E(RCAM-B3LYP) =  -1088.93601600     A.U. after    9 cycles
 SCF Done:  E(RCAM-B3LYP) =  -1088.93601634     A.U. after    7 cycles
 SCF Done:  E(RCAM-B3LYP) =  -1088.93601656     A.U. after    7 cycles
 SCF Done:  E(RCAM-B3LYP) =  -1088.93601680     A.U. after    7 cycles
 SCF Done:  E(RCAM-B3LYP) =  -1088.93601699     A.U. after    7 cycles
 SCF Done:  E(RCAM-B3LYP) =  -1088.93601704     A.U. after    7 cycles
 SCF Done:  E(RCAM-B3LYP) =  -1088.93601703     A.U. after    8 cycles
 SCF Done:  E(RCAM-B3LYP) =  -1088.93601699     A.U. after    8 cycles
 SCF Done:  E(RCAM-B3LYP) =  -1088.93601695     A.U. after    7 cycles
 Optimization completed.
    -- Stationary point found.

                         Standard orientation:
 ---------------------------------------------------------------------
 Center     Atomic      Atomic             Coordinates (Angstroms)
 Number     Number       Type             X           Y           Z
 ---------------------------------------------------------------------
      1          6           0       -0.075527    1.197302   -0.670965
      2          6           0        0.677247    2.203909   -0.030725
      3          6           0        0.190657    3.494622    0.164090
      4          6           0       -1.073875    3.780247   -0.311847
      5          6           0       -1.829971    2.803988   -0.976006
      6          6           0       -1.344923    1.524759   -1.162805
      7          6           0        0.777495    0.030851   -0.702449
      8          6           0        1.986006    0.391014   -0.129360
      9          1           0        0.781882    4.248943    0.666942
     10          1           0       -1.483879    4.773317   -0.175463
     11          1           0       -2.815100    3.057867   -1.347901
     12          1           0       -1.945954    0.791005   -1.679495
     13          7           0        1.913051    1.688315    0.305916
     14          6           0        2.971349    2.474030    0.913655
     15          1           0        2.756990    2.670375    1.965551
     16          1           0        3.911374    1.936435    0.837727
     17          1           0        3.069256    3.423308    0.386748
     18          7           0        0.640699   -1.251506   -1.259908
     19          7           0       -0.418833   -1.907077   -1.299515
     20          6           0       -1.599782   -1.529001   -0.597357
     21          6           0       -1.595962   -1.134494    0.742763
     22          6           0       -2.812317   -1.716552   -1.243598
     23          6           0       -2.784995   -0.890872    1.394614
     24          1           0       -0.659949   -1.026253    1.274213
     25          6           0       -4.014093   -1.439043   -0.606006
     26          1           0       -2.808991   -2.070161   -2.267402
     27          6           0       -4.002472   -1.019509    0.721199
     28          1           0       -2.799906   -0.590031    2.434390
     29          1           0       -4.941664   -1.568734   -1.144324
     30          8           0       -5.110678   -0.731518    1.443812
     31          6           0       -6.375487   -0.846663    0.809499
     32          1           0       -6.449959   -0.174104   -0.049036
     33          1           0       -6.564589   -1.873756    0.486705
     34          1           0       -7.111980   -0.561858    1.556344
     35          6           0        3.176972   -0.450039    0.078941
     36          6           0        3.805826   -1.051790   -1.010428
     37          6           0        3.683407   -0.663806    1.360556
     38          6           0        4.925965   -1.845386   -0.820111
     39          1           0        3.406247   -0.897429   -2.003682
     40          6           0        4.803817   -1.460114    1.548643
     41          1           0        3.191353   -0.214338    2.214766
     42          6           0        5.428404   -2.050555    0.458880
     43          1           0        5.409573   -2.304844   -1.673447
     44          1           0        5.186296   -1.621437    2.548957
     45          1           0        6.303577   -2.671665    0.605362
 ---------------------------------------------------------------------

 The electronic state is 1-A.
 Alpha  occ. eigenvalues --  -19.22669 -14.44508 -14.43708 -14.42925 -10.31539
 Alpha  occ. eigenvalues --  -10.30107 -10.29367 -10.28416 -10.28278 -10.27573
 Alpha  occ. eigenvalues --  -10.27102 -10.26993 -10.25688 -10.25640 -10.25567
 Alpha  occ. eigenvalues --  -10.25533 -10.25429 -10.25313 -10.25257 -10.25187
 Alpha  occ. eigenvalues --  -10.25157 -10.25125 -10.24949 -10.24803 -10.24695
 Alpha  occ. eigenvalues --  -10.24269  -1.15845  -1.11996  -1.09018  -0.95942
 Alpha  occ. eigenvalues --   -0.95577  -0.94207  -0.90963  -0.86486  -0.86250
 Alpha  occ. eigenvalues --   -0.84404  -0.83932  -0.83462  -0.81551  -0.80297
 Alpha  occ. eigenvalues --   -0.78294  -0.73482  -0.71751  -0.70243  -0.69666
 Alpha  occ. eigenvalues --   -0.68674  -0.67635  -0.65409  -0.63989  -0.62324
 Alpha  occ. eigenvalues --   -0.60400  -0.59999  -0.57444  -0.57111  -0.55812
 Alpha  occ. eigenvalues --   -0.55433  -0.54690  -0.54428  -0.52756  -0.52564
 Alpha  occ. eigenvalues --   -0.52005  -0.51628  -0.51022  -0.50306  -0.49986
 Alpha  occ. eigenvalues --   -0.49716  -0.49331  -0.48260  -0.47685  -0.47210
 Alpha  occ. eigenvalues --   -0.46496  -0.45350  -0.45050  -0.44597  -0.43157
 Alpha  occ. eigenvalues --   -0.42931  -0.41954  -0.41777  -0.41632  -0.40406
 Alpha  occ. eigenvalues --   -0.39851  -0.38477  -0.34617  -0.32723  -0.32190
 Alpha  occ. eigenvalues --   -0.31992  -0.30518  -0.28699  -0.27979  -0.24763
 Alpha virt. eigenvalues --   -0.02610   0.00805   0.02671   0.03008   0.03684
 Alpha virt. eigenvalues --    0.05637   0.06726   0.07968   0.09048   0.09826
 Alpha virt. eigenvalues --    0.10449   0.11236   0.12170   0.12397   0.12800

 Mulliken charges:
               1
     1  C   -0.059778
     2  C    0.208991
     3  C   -0.088054
     4  C   -0.131671
     5  C   -0.140030
     6  C   -0.053207
     7  C   -0.127716
     8  C    0.302948
     9  H    0.129216
    10  H    0.118019
    11  H    0.114768
    12  H    0.122982
    13  N   -0.472346
    14  C   -0.182553
    15  H    0.150440
    16  H    0.151509
    17  H    0.145146
    18  N   -0.176650
    19  N   -0.182785
    20  C   -0.091554
    21  C   -0.026530
    22  C   -0.068368
    23  C   -0.108943
    24  H    0.140451
    25  C   -0.148253
    26  H    0.117765
    27  C    0.162568
    28  H    0.123546
    29  H    0.141272
    30  O   -0.349560
    31  C   -0.159309
    32  H    0.128935
    33  H    0.129198
    34  H    0.143036
    35  C   -0.140915
    36  C   -0.031402
    37  C   -0.068703
    38  C   -0.118754
    39  H    0.114338
    40  C   -0.111385
    41  H    0.127720
    42  C   -0.108654
    43  H    0.124272
    44  H    0.124724
    45  H    0.125275
 Sum of Mulliken charges =  -0.00000

 Dipole moment (field-independent basis, Debye):
    X=              0.3906    Y=              3.8595    Z=              2.7722  Tot=              4.7679
 Quadrupole moment (field-independent basis, Debye-Ang):
   XX=           -105.4341   YY=           -149.5369   ZZ=           -148.8112
   XY=              5.1753   XZ=             13.0121   YZ=              1.6572

 Normal termination of Gaussian 16 at Thu Jun 30 13:02:40 2022.
