 Gaussian 16, Revision C.01,
 Gaussian 16:  ES64L-G16RevC.01  3-Jul-2019

 ----------------------------------------------------------------------
 # CAM-B3LYP/6-311G(d,p) opt=modredundant scrf=(solvent=acetonitrile) E
 mpiricalDispersion=GD3BJ
 ----------------------------------------------------------------------

 ------------
 Optimization
 ------------
 Symbolic Z-matrix:
 Charge =  0 Multiplicity = 1

 SCF Done:  E(RCAM-B3LYP) =  -1088.95338739     A.U. after   14 cycles
 SCF Done:  E(RCAM-B3LYP) =  -1088.95344606     A.U. after   10 cycles
 SCF Done:  E(RCAM-B3LYP) =  -1088.95347062     A.U. after    9 cycles
 SCF Done:  E(RCAM-B3LYP) =  -1088.95347128     A.U. after    7 cycles
 SCF Done:  E(RCAM-B3LYP) =  -1088.95347131     A.U. after    7 cycles
 Optimization completed.
    -- Stationary point found.

                         Standard orientation:
 ---------------------------------------------------------------------
 Center     Atomic      Atomic             Coordinates (Angstroms)
 Number     Number       Type             X           Y           Z
 ---------------------------------------------------------------------
      1          6           0        2.383454   -1.673008   -0.000037
      2          6           0        3.605431   -0.977607    0.000197
      3          6           0        4.834654   -1.633613    0.000316
      4          6           0        4.815106   -3.015686    0.000207
      5          6           0        3.604231   -3.726989   -0.000025
      6          6           0        2.389031   -3.070044   -0.000153
      7          6           0        1.345915   -0.677410   -0.000153
      8          6           0        1.968456    0.563951    0.000095
      9          1           0        5.769353   -1.087505    0.000483
     10          1           0        5.751240   -3.560417    0.000296
     11          1           0        3.628169   -4.809992   -0.000110
     12          1           0        1.456927   -3.620996   -0.000344
     13          7           0        3.325959    0.375793    0.000276
     14          6           0        4.343391    1.410094    0.000538
     15          1           0        4.969620    1.323499   -0.888440
     16          1           0        3.863934    2.384383    0.000974
     17          1           0        4.969809    1.322802    0.889310
     18          7           0        0.004767   -1.024620   -0.000484
     19          7           0       -0.818978   -0.084551   -0.000769
     20          6           0       -2.176983   -0.472722   -0.000474
     21          6           0       -2.632039   -1.796594    0.000125
     22          6           0       -3.105050    0.559353   -0.000849
     23          6           0       -3.981413   -2.063553    0.000331
     24          1           0       -1.909397   -2.600599    0.000411
     25          6           0       -4.469497    0.301611   -0.000652
     26          1           0       -2.739685    1.578914   -0.001314
     27          6           0       -4.912598   -1.017369   -0.000056
     28          1           0       -4.352847   -3.080655    0.000788
     29          1           0       -5.167102    1.126324   -0.000962
     30          8           0       -6.213291   -1.388357    0.000181
     31          6           0       -7.203896   -0.370752   -0.000202
     32          1           0       -7.127436    0.255456    0.892393
     33          1           0       -7.127528    0.254693   -0.893338
     34          1           0       -8.161248   -0.885234    0.000068
     35          6           0        1.387000    1.921610    0.000167
     36          6           0        1.116066    2.568302   -1.202282
     37          6           0        1.114905    2.567672    1.202694
     38          6           0        0.567076    3.842150   -1.201572
     39          1           0        1.326281    2.065222   -2.138214
     40          6           0        0.565922    3.841520    1.202122
     41          1           0        1.324214    2.064097    2.138562
     42          6           0        0.288301    4.479750    0.000308
     43          1           0        0.354775    4.337038   -2.141378
     44          1           0        0.352721    4.335919    2.141982
     45          1           0       -0.142485    5.473557    0.000361
 ---------------------------------------------------------------------

 The electronic state is 1-A.
 Alpha  occ. eigenvalues --  -19.22785 -14.44731 -14.42965 -14.42056 -10.31637
 Alpha  occ. eigenvalues --  -10.30143 -10.29397 -10.28249 -10.28136 -10.27098
 Alpha  occ. eigenvalues --  -10.26825 -10.26639 -10.25413 -10.25359 -10.25356
 Alpha  occ. eigenvalues --  -10.25254 -10.25237 -10.25199 -10.25161 -10.25158
 Alpha  occ. eigenvalues --  -10.24953 -10.24936 -10.24914 -10.24775 -10.24602
 Alpha  occ. eigenvalues --  -10.24284  -1.15956  -1.12063  -1.08995  -0.95755
 Alpha  occ. eigenvalues --   -0.95658  -0.94119  -0.90831  -0.86474  -0.86136
 Alpha  occ. eigenvalues --   -0.84245  -0.83790  -0.83480  -0.81342  -0.80306
 Alpha  occ. eigenvalues --   -0.77596  -0.73605  -0.71439  -0.70081  -0.69149
 Alpha  occ. eigenvalues --   -0.67765  -0.67164  -0.65986  -0.63552  -0.61654
 Alpha  occ. eigenvalues --   -0.60377  -0.59449  -0.57833  -0.56474  -0.55586
 Alpha  occ. eigenvalues --   -0.54766  -0.54707  -0.54256  -0.52820  -0.52351
 Alpha  occ. eigenvalues --   -0.51849  -0.51132  -0.50587  -0.50470  -0.50128
 Alpha  occ. eigenvalues --   -0.49882  -0.49661  -0.48350  -0.47697  -0.46955
 Alpha  occ. eigenvalues --   -0.46899  -0.45212  -0.44934  -0.44589  -0.43163
 Alpha  occ. eigenvalues --   -0.42704  -0.41978  -0.41810  -0.40714  -0.40505
 Alpha  occ. eigenvalues --   -0.39828  -0.39299  -0.34434  -0.32580  -0.32290
 Alpha  occ. eigenvalues --   -0.31977  -0.29499  -0.28819  -0.28642  -0.24817
 Alpha virt. eigenvalues --   -0.03232   0.02241   0.02565   0.02909   0.03111
 Alpha virt. eigenvalues --    0.05774   0.07804   0.08087   0.09355   0.09420
 Alpha virt. eigenvalues --    0.10238   0.11297   0.12063   0.12132   0.13100

 Mulliken charges:
               1
     1  C   -0.080097
     2  C    0.206789
     3  C   -0.084902
     4  C   -0.133489
     5  C   -0.137600
     6  C   -0.069753
     7  C   -0.065776
     8  C    0.311104
     9  H    0.127488
    10  H    0.117484
    11  H    0.116202
    12  H    0.109259
    13  N   -0.457421
    14  C   -0.169850
    15  H    0.145754
    16  H    0.147963
    17  H    0.145744
    18  N   -0.188381
    19  N   -0.215939
    20  C   -0.008707
    21  C   -0.047828
    22  C   -0.072972
    23  C   -0.118605
    24  H    0.123494
    25  C   -0.155722
    26  H    0.117253
    27  C    0.162271
    28  H    0.123996
    29  H    0.139843
    30  O   -0.347354
    31  C   -0.158977
    32  H    0.129799
    33  H    0.129798
    34  H    0.143411
    35  C   -0.158110
    36  C   -0.042705
    37  C   -0.042689
    38  C   -0.113524
    39  H    0.114072
    40  C   -0.113532
    41  H    0.114068
    42  C   -0.114238
    43  H    0.123955
    44  H    0.123955
    45  H    0.124468
 Sum of Mulliken charges =  -0.00000

 Dipole moment (field-independent basis, Debye):
    X=              0.8818    Y=              4.9901    Z=              0.0009  Tot=              5.0674
 Quadrupole moment (field-independent basis, Debye-Ang):
   XX=           -107.5704   YY=           -137.7806   ZZ=           -151.2479
   XY=             -2.6532   XZ=              0.0029   YZ=             -0.0026

 Normal termination of Gaussian 16 at Thu Jun 30 12:37:55 2022.
