 Gaussian 16, Revision C.01,
 Gaussian 16:  ES64L-G16RevC.01  3-Jul-2019

 ----------------------------------------------------------------------
 # CAM-B3LYP/6-311G(d,p) opt=modredundant scrf=(solvent=acetonitrile) E
 mpiricalDispersion=GD3BJ
 ----------------------------------------------------------------------

 ------------
 Optimization
 ------------
 Symbolic Z-matrix:
 Charge =  0 Multiplicity = 1

 SCF Done:  E(RCAM-B3LYP) =  -1088.93784304     A.U. after   14 cycles
 SCF Done:  E(RCAM-B3LYP) =  -1088.87947656     A.U. after   15 cycles
 SCF Done:  E(RCAM-B3LYP) =  -1088.93458193     A.U. after   14 cycles
 SCF Done:  E(RCAM-B3LYP) =  -1088.93794035     A.U. after   11 cycles
 SCF Done:  E(RCAM-B3LYP) =  -1088.93854577     A.U. after   13 cycles
 SCF Done:  E(RCAM-B3LYP) =  -1088.93896969     A.U. after   12 cycles
 SCF Done:  E(RCAM-B3LYP) =  -1088.93909884     A.U. after   12 cycles
 SCF Done:  E(RCAM-B3LYP) =  -1088.93905438     A.U. after   12 cycles
 SCF Done:  E(RCAM-B3LYP) =  -1088.93914022     A.U. after   12 cycles
 SCF Done:  E(RCAM-B3LYP) =  -1088.93914271     A.U. after   10 cycles
 SCF Done:  E(RCAM-B3LYP) =  -1088.93914540     A.U. after   10 cycles
 SCF Done:  E(RCAM-B3LYP) =  -1088.93914607     A.U. after   10 cycles
 SCF Done:  E(RCAM-B3LYP) =  -1088.93914643     A.U. after    9 cycles
 SCF Done:  E(RCAM-B3LYP) =  -1088.93914664     A.U. after    6 cycles
 SCF Done:  E(RCAM-B3LYP) =  -1088.93914691     A.U. after    9 cycles
 SCF Done:  E(RCAM-B3LYP) =  -1088.93914711     A.U. after    9 cycles
 SCF Done:  E(RCAM-B3LYP) =  -1088.93914725     A.U. after    9 cycles
 SCF Done:  E(RCAM-B3LYP) =  -1088.93914736     A.U. after    6 cycles
 SCF Done:  E(RCAM-B3LYP) =  -1088.93914740     A.U. after    7 cycles
 SCF Done:  E(RCAM-B3LYP) =  -1088.93914743     A.U. after    8 cycles
 Optimization completed.
    -- Stationary point found.

                         Standard orientation:
 ---------------------------------------------------------------------
 Center     Atomic      Atomic             Coordinates (Angstroms)
 Number     Number       Type             X           Y           Z
 ---------------------------------------------------------------------
      1          6           0       -2.877377   -0.472388    0.458932
      2          6           0       -3.066007    0.258781   -0.730022
      3          6           0       -4.227646    0.137126   -1.491696
      4          6           0       -5.198878   -0.734481   -1.036848
      5          6           0       -5.023814   -1.472811    0.145461
      6          6           0       -3.870186   -1.354785    0.894790
      7          6           0       -1.577726   -0.119744    0.947933
      8          6           0       -1.048737    0.821979    0.087890
      9          1           0       -4.365168    0.696542   -2.408181
     10          1           0       -6.112720   -0.853689   -1.605953
     11          1           0       -5.808266   -2.145660    0.469700
     12          1           0       -3.734103   -1.926404    1.804547
     13          7           0       -1.954996    1.048338   -0.929940
     14          6           0       -1.862168    2.052204   -1.974005
     15          1           0       -2.804977    2.595190   -2.041466
     16          1           0       -1.072187    2.756828   -1.731780
     17          1           0       -1.644715    1.594803   -2.941033
     18          7           0       -1.095475   -0.605504    2.183285
     19          7           0        0.061304   -1.026722    2.362124
     20          6           0        0.993419   -1.208685    1.294581
     21          6           0        0.679073   -1.887870    0.115578
     22          6           0        2.299115   -0.807009    1.521248
     23          6           0        1.654825   -2.106509   -0.832110
     24          1           0       -0.326533   -2.249001   -0.054233
     25          6           0        3.281129   -0.996502    0.559187
     26          1           0        2.540942   -0.315981    2.455205
     27          6           0        2.956555   -1.639791   -0.629716
     28          1           0        1.432386   -2.634599   -1.750582
     29          1           0        4.283263   -0.641343    0.748810
     30          8           0        3.830399   -1.869826   -1.639540
     31          6           0        5.159474   -1.392498   -1.496202
     32          1           0        5.177376   -0.306808   -1.369477
     33          1           0        5.662280   -1.867146   -0.649473
     34          1           0        5.674229   -1.657911   -2.416011
     35          6           0        0.227039    1.544334    0.181773
     36          6           0        0.557278    2.223086    1.353748
     37          6           0        1.135316    1.532762   -0.876526
     38          6           0        1.774614    2.876928    1.465343
     39          1           0       -0.145101    2.235007    2.178049
     40          6           0        2.349932    2.189795   -0.763811
     41          1           0        0.899642    0.984227   -1.779660
     42          6           0        2.672779    2.863067    0.406611
     43          1           0        2.020965    3.401063    2.380610
     44          1           0        3.051327    2.165775   -1.588736
     45          1           0        3.624289    3.372994    0.494863
 ---------------------------------------------------------------------

 The electronic state is 1-A.
 Alpha  occ. eigenvalues --  -19.22556 -14.44198 -14.44189 -14.43690 -10.31319
 Alpha  occ. eigenvalues --  -10.29818 -10.29318 -10.28194 -10.28127 -10.27520
 Alpha  occ. eigenvalues --  -10.26954 -10.26819 -10.25618 -10.25398 -10.25375
 Alpha  occ. eigenvalues --  -10.25370 -10.25181 -10.25135 -10.25100 -10.25100
 Alpha  occ. eigenvalues --  -10.25054 -10.24874 -10.24825 -10.24813 -10.24632
 Alpha  occ. eigenvalues --  -10.24244  -1.15707  -1.12576  -1.08666  -0.95867
 Alpha  occ. eigenvalues --   -0.95418  -0.94130  -0.90720  -0.86557  -0.86042
 Alpha  occ. eigenvalues --   -0.84238  -0.83855  -0.83408  -0.81276  -0.80200
 Alpha  occ. eigenvalues --   -0.78221  -0.73488  -0.71505  -0.70157  -0.69601
 Alpha  occ. eigenvalues --   -0.68449  -0.67517  -0.65884  -0.63878  -0.62206
 Alpha  occ. eigenvalues --   -0.60335  -0.59833  -0.57433  -0.57209  -0.55530
 Alpha  occ. eigenvalues --   -0.55253  -0.54576  -0.54442  -0.52612  -0.52484
 Alpha  occ. eigenvalues --   -0.51978  -0.51158  -0.50955  -0.50226  -0.50017
 Alpha  occ. eigenvalues --   -0.49616  -0.49427  -0.48190  -0.47630  -0.47279
 Alpha  occ. eigenvalues --   -0.46707  -0.45468  -0.44988  -0.44230  -0.43052
 Alpha  occ. eigenvalues --   -0.42840  -0.41864  -0.41798  -0.40946  -0.40298
 Alpha  occ. eigenvalues --   -0.39751  -0.38578  -0.34712  -0.33024  -0.32106
 Alpha  occ. eigenvalues --   -0.31798  -0.30599  -0.28438  -0.27816  -0.24748
 Alpha virt. eigenvalues --   -0.02473   0.00598   0.02933   0.03089   0.03851
 Alpha virt. eigenvalues --    0.05733   0.06692   0.07593   0.09135   0.10279
 Alpha virt. eigenvalues --    0.10427   0.10745   0.11607   0.12067   0.13092

 Mulliken charges:
               1
     1  C   -0.023274
     2  C    0.195396
     3  C   -0.086996
     4  C   -0.134510
     5  C   -0.136811
     6  C   -0.073133
     7  C   -0.165764
     8  C    0.358447
     9  H    0.127397
    10  H    0.117753
    11  H    0.116363
    12  H    0.105673
    13  N   -0.475618
    14  C   -0.182627
    15  H    0.142773
    16  H    0.150565
    17  H    0.148727
    18  N   -0.171477
    19  N   -0.165889
    20  C   -0.098184
    21  C   -0.010036
    22  C   -0.027556
    23  C   -0.123372
    24  H    0.135752
    25  C   -0.153198
    26  H    0.113819
    27  C    0.168323
    28  H    0.121771
    29  H    0.137497
    30  O   -0.351445
    31  C   -0.160559
    32  H    0.128338
    33  H    0.128420
    34  H    0.142229
    35  C   -0.187347
    36  C   -0.050792
    37  C   -0.051747
    38  C   -0.113561
    39  H    0.118879
    40  C   -0.097500
    41  H    0.124543
    42  C   -0.110702
    43  H    0.122600
    44  H    0.123878
    45  H    0.122957
 Sum of Mulliken charges =  -0.00000

 Dipole moment (field-independent basis, Debye):
    X=              4.0596    Y=              4.0100    Z=             -5.5862  Tot=              7.9854
 Quadrupole moment (field-independent basis, Debye-Ang):
   XX=           -124.5995   YY=           -149.3989   ZZ=           -153.4630
   XY=              4.0135   XZ=              7.3727   YZ=              0.7997

 Normal termination of Gaussian 16 at Fri Jul  1 16:01:42 2022.
