 Gaussian 16, Revision C.01,
 Gaussian 16:  ES64L-G16RevC.01  3-Jul-2019

 ----------------------------------------------------------------------
 # CAM-B3LYP/6-311G(d,p) td(nstates=20, singlets) scrf=(solvent=acetoni
 trile) EmpiricalDispersion=GD3BJ
 ----------------------------------------------------------------------

 -
 -
 -
 Symbolic Z-matrix:
 Charge =  0 Multiplicity = 1

                         Standard orientation:
 ---------------------------------------------------------------------
 Center     Atomic      Atomic             Coordinates (Angstroms)
 Number     Number       Type             X           Y           Z
 ---------------------------------------------------------------------
      1          6           0        1.747233   -1.834730    0.015107
      2          6           0        3.141201   -1.629494    0.013385
      3          6           0        4.049002   -2.683717   -0.005875
      4          6           0        3.534042   -3.967402   -0.028936
      5          6           0        2.150904   -4.193142   -0.033890
      6          6           0        1.252228   -3.142032   -0.012655
      7          6           0        1.157164   -0.518955    0.038645
      8          6           0        2.195770    0.403895    0.050492
      9          1           0        5.117525   -2.511274   -0.010225
     10          1           0        4.212468   -4.811510   -0.046745
     11          1           0        1.781245   -5.211201   -0.054287
     12          1           0        0.186028   -3.312261   -0.014110
     13          7           0        3.388500   -0.266553    0.038802
     14          6           0        4.720080    0.299046    0.160405
     15          1           0        5.255030    0.251371   -0.789675
     16          1           0        4.647867    1.335360    0.476068
     17          1           0        5.280289   -0.256033    0.912475
     18          7           0       -0.156670   -0.109012    0.005961
     19          7           0       -1.016297   -1.020483    0.030729
     20          6           0       -2.355422   -0.566959   -0.011416
     21          6           0       -2.737854    0.777357   -0.099762
     22          6           0       -3.340422   -1.543265    0.041483
     23          6           0       -4.070537    1.117801   -0.130389
     24          1           0       -1.972580    1.539671   -0.144140
     25          6           0       -4.688705   -1.210803    0.011145
     26          1           0       -3.037467   -2.580852    0.109558
     27          6           0       -5.058641    0.127518   -0.074843
     28          1           0       -4.383842    2.152052   -0.199132
     29          1           0       -5.430551   -1.994901    0.054687
     30          8           0       -6.337376    0.569109   -0.111744
     31          6           0       -7.382479   -0.390522   -0.059675
     32          1           0       -7.333724   -1.074799   -0.910701
     33          1           0       -7.348432   -0.962256    0.871393
     34          1           0       -8.310025    0.174358   -0.102971
     35          6           0        2.096096    1.868985    0.044173
     36          6           0        2.789695    2.628524   -0.899724
     37          6           0        1.275727    2.518558    0.967295
     38          6           0        2.667176    4.009384   -0.916861
     39          1           0        3.411470    2.135022   -1.636520
     40          6           0        1.155951    3.899515    0.948050
     41          1           0        0.735499    1.934194    1.699577
     42          6           0        1.851437    4.648139    0.007573
     43          1           0        3.205884    4.586655   -1.658054
     44          1           0        0.519036    4.392684    1.672017
     45          1           0        1.756691    5.726988   -0.006075
 ---------------------------------------------------------------------

 SCF Done:  E(RCAM-B3LYP) =  -1088.95974660     A.U. after   14 cycles

 Excitation energies and oscillator strengths:

 Excited State   1:      Singlet-A      3.0114 eV  411.71 nm  f=0.0009  <S**2>=0.000
      88 -> 91         0.63762
      88 -> 92        -0.15459
      89 -> 91        -0.16708
 This state for optimization and/or second-order correction.
 Total Energy, E(TD-HF/TD-DFT) =  -1088.84907785
 Copying the excited state density for this state as the 1-particle RhoCI density.

 Excited State   2:      Singlet-A      3.4411 eV  360.30 nm  f=0.9715  <S**2>=0.000
      90 -> 91         0.69128

 Excited State   3:      Singlet-A      4.4611 eV  277.92 nm  f=0.0302  <S**2>=0.000
      87 -> 92         0.10662
      88 -> 91         0.13595
      89 -> 91         0.55970
      90 -> 92        -0.33052

 Excited State   4:      Singlet-A      4.6086 eV  269.03 nm  f=0.5548  <S**2>=0.000
      87 -> 91        -0.19779
      88 -> 91         0.10064
      89 -> 91         0.30676
      89 -> 92         0.13357
      90 -> 92         0.54183

 Excited State   5:      Singlet-A      4.8172 eV  257.38 nm  f=0.0311  <S**2>=0.000
      85 -> 91         0.20425
      86 -> 91         0.28957
      87 -> 91        -0.11881
      87 -> 94         0.23309
      90 -> 92        -0.12520
      90 -> 94         0.47648

 Excited State   6:      Singlet-A      4.9422 eV  250.87 nm  f=0.0839  <S**2>=0.000
      86 -> 91         0.10220
      87 -> 91         0.57920
      87 -> 92        -0.11170
      89 -> 91         0.14112
      89 -> 92        -0.14091
      90 -> 92         0.16468

 Excited State   7:      Singlet-A      5.1736 eV  239.65 nm  f=0.0064  <S**2>=0.000
      84 -> 93        -0.22972
      85 -> 91         0.27419
      85 -> 92         0.18744
      85 -> 95         0.13755
      86 -> 91        -0.17579
      86 -> 92        -0.14200
      88 -> 92        -0.10711
      89 -> 92         0.16640
      89 -> 93         0.20612
      90 -> 93         0.35667

 Excited State   8:      Singlet-A      5.1848 eV  239.13 nm  f=0.0286  <S**2>=0.000
      84 -> 91         0.11897
      86 -> 91         0.10350
      87 -> 91         0.24603
      87 -> 96        -0.14957
      88 -> 92         0.14400
      89 -> 91        -0.11428
      89 -> 92         0.41630
      89 -> 95        -0.20462
      90 -> 96         0.24458

 Excited State   9:      Singlet-A      5.4638 eV  226.92 nm  f=0.0656  <S**2>=0.000
      87 -> 95        -0.13642
      89 -> 92         0.19440
      90 -> 95         0.60664

 Excited State  10:      Singlet-A      5.5182 eV  224.68 nm  f=0.0207  <S**2>=0.000
      84 -> 91         0.17988
      88 -> 91         0.16015
      88 -> 92         0.52290
      89 -> 92        -0.19021
      90 -> 93         0.26731
      90 -> 95         0.10371

 Excited State  11:      Singlet-A      5.6209 eV  220.58 nm  f=0.1184  <S**2>=0.000
      84 -> 91        -0.13514
      85 -> 91         0.25527
      86 -> 91         0.46794
      90 -> 93         0.12951
      90 -> 94        -0.35613

 Excited State  12:      Singlet-A      5.6521 eV  219.36 nm  f=0.0365  <S**2>=0.000
      84 -> 91        -0.17373
      85 -> 91        -0.38752
      86 -> 91         0.16462
      88 -> 92        -0.13818
      90 -> 93         0.43609
      90 -> 94         0.12643
      90 -> 95        -0.11321

 Excited State  13:      Singlet-A      5.6681 eV  218.74 nm  f=0.1797  <S**2>=0.000
      84 -> 91         0.54112
      86 -> 91         0.13997
      88 -> 92        -0.28713
      89 -> 92        -0.12516
      90 -> 93         0.14086

 Excited State  14:      Singlet-A      5.9398 eV  208.74 nm  f=0.1738  <S**2>=0.000
      83 -> 91        -0.31961
      84 -> 91        -0.16022
      86 -> 94         0.10813
      87 -> 92         0.18447
      89 -> 92        -0.20940
      90 -> 96         0.45022

 Excited State  15:      Singlet-A      5.9659 eV  207.82 nm  f=0.0048  <S**2>=0.000
      88 -> 94         0.65254
      89 -> 94        -0.17309

 Excited State  16:      Singlet-A      6.0697 eV  204.27 nm  f=0.0189  <S**2>=0.000
      83 -> 91         0.34243
      84 -> 91        -0.12736
      84 -> 93         0.19030
      85 -> 91         0.26817
      85 -> 92        -0.17052
      85 -> 95        -0.12284
      86 -> 91        -0.18170
      86 -> 92         0.11207
      89 -> 92        -0.13092
      89 -> 93        -0.21512
      89 -> 95        -0.14454
      90 -> 93         0.15767

 Excited State  17:      Singlet-A      6.0955 eV  203.40 nm  f=0.0578  <S**2>=0.000
      83 -> 91         0.39847
      84 -> 91        -0.12281
      84 -> 93        -0.14532
      85 -> 91        -0.21453
      85 -> 92         0.11624
      86 -> 91         0.16556
      89 -> 92        -0.20560
      89 -> 93         0.16475
      89 -> 95        -0.15595
      89 -> 96         0.10253
      90 -> 93        -0.11928
      90 -> 96         0.14908

 Excited State  18:      Singlet-A      6.2473 eV  198.46 nm  f=0.1927  <S**2>=0.000
      83 -> 91         0.13039
      83 -> 92         0.15967
      85 -> 93        -0.19602
      86 -> 93         0.13931
      87 -> 92        -0.24973
      89 -> 95         0.38005
      89 -> 96        -0.10320
      90 -> 96         0.32049

 Excited State  19:      Singlet-A      6.3582 eV  195.00 nm  f=0.0099  <S**2>=0.000
      83 -> 91         0.14062
      83 -> 95         0.10871
      84 -> 91         0.12376
      84 -> 92        -0.23105
      85 -> 93        -0.16458
      86 -> 94         0.12703
      87 -> 92         0.37888
      87 -> 96         0.10529
      88 -> 93         0.13154
      89 -> 95         0.16940
      89 -> 96         0.14096
      90 -> 95        -0.12819
      90 -> 97        -0.15800
      90 -> 98         0.14883

 Excited State  20:      Singlet-A      6.4082 eV  193.48 nm  f=0.0297  <S**2>=0.000
      83 -> 91        -0.11047
      84 -> 92        -0.15651
      85 -> 93        -0.13429
      85 -> 94        -0.20017
      86 -> 93         0.15354
      86 -> 94        -0.23634
      88 -> 93         0.12934
      89 -> 96         0.20736
      90 -> 97         0.31418
      90 -> 98        -0.29388

 The electronic state is 1-A.
 Alpha  occ. eigenvalues --  -19.22698 -14.44712 -14.42795 -14.41885 -10.31506
 Alpha  occ. eigenvalues --  -10.30379 -10.29360 -10.28450 -10.28357 -10.27126
 Alpha  occ. eigenvalues --  -10.27031 -10.26774 -10.25764 -10.25561 -10.25403
 Alpha  occ. eigenvalues --  -10.25333 -10.25320 -10.25263 -10.25201 -10.25168
 Alpha  occ. eigenvalues --  -10.25117 -10.24892 -10.24827 -10.24742 -10.24600
 Alpha  occ. eigenvalues --  -10.24257  -1.15861  -1.11947  -1.09081  -0.95999
 Alpha  occ. eigenvalues --   -0.95584  -0.94092  -0.91126  -0.86456  -0.86290
 Alpha  occ. eigenvalues --   -0.84158  -0.84035  -0.83378  -0.81510  -0.80394
 Alpha  occ. eigenvalues --   -0.77583  -0.73579  -0.71648  -0.69976  -0.69727
 Alpha  occ. eigenvalues --   -0.67893  -0.67393  -0.65119  -0.63647  -0.61578
 Alpha  occ. eigenvalues --   -0.60378  -0.59394  -0.57638  -0.56357  -0.55762
 Alpha  occ. eigenvalues --   -0.55331  -0.54648  -0.53819  -0.52725  -0.52320
 Alpha  occ. eigenvalues --   -0.51984  -0.51725  -0.50863  -0.50482  -0.49905
 Alpha  occ. eigenvalues --   -0.49827  -0.49674  -0.48309  -0.47642  -0.47049
 Alpha  occ. eigenvalues --   -0.47013  -0.45196  -0.44876  -0.44807  -0.43091
 Alpha  occ. eigenvalues --   -0.42902  -0.42060  -0.41741  -0.41213  -0.40748
 Alpha  occ. eigenvalues --   -0.39752  -0.39257  -0.34390  -0.32826  -0.32226
 Alpha  occ. eigenvalues --   -0.32173  -0.29577  -0.29210  -0.28441  -0.24665
 Alpha virt. eigenvalues --   -0.03323   0.00780   0.02962   0.03108   0.03928
 Alpha virt. eigenvalues --    0.05715   0.08179   0.08319   0.09286   0.09547
 Alpha virt. eigenvalues --    0.10362   0.11413   0.11553   0.12891   0.13410

 Mulliken charges:
               1
     1  C   -0.064297
     2  C    0.200722
     3  C   -0.087495
     4  C   -0.129094
     5  C   -0.134148
     6  C   -0.072563
     7  C   -0.070969
     8  C    0.292933
     9  H    0.129567
    10  H    0.118273
    11  H    0.115562
    12  H    0.111678
    13  N   -0.477380
    14  C   -0.186988
    15  H    0.152904
    16  H    0.152960
    17  H    0.146282
    18  N   -0.173843
    19  N   -0.229589
    20  C   -0.006906
    21  C   -0.050310
    22  C   -0.076483
    23  C   -0.119594
    24  H    0.124966
    25  C   -0.156800
    26  H    0.123804
    27  C    0.161737
    28  H    0.122881
    29  H    0.138781
    30  O   -0.348279
    31  C   -0.158655
    32  H    0.129272
    33  H    0.129147
    34  H    0.142990
    35  C   -0.124435
    36  C   -0.072854
    37  C   -0.038890
    38  C   -0.112263
    39  H    0.130987
    40  C   -0.121365
    41  H    0.118436
    42  C   -0.106668
    43  H    0.125211
    44  H    0.124842
    45  H    0.125933
 Sum of Mulliken charges =  -0.00000

 Dipole moment (field-independent basis, Debye):
    X=              2.5104    Y=              1.5497    Z=              0.2263  Tot=              2.9589
 Quadrupole moment (field-independent basis, Debye-Ang):
   XX=            -98.1852   YY=           -135.2679   ZZ=           -154.6762
   XY=             14.2142   XZ=             -3.7587   YZ=             -0.3598

 Normal termination of Gaussian 16 at Wed Dec 18 01:03:30 2024.
