 Gaussian 16, Revision C.01,
 Gaussian 16:  ES64L-G16RevC.01  3-Jul-2019

 ----------------------------------------------------------------------
 # CAM-B3LYP/6-311G(d,p) td(nstates=20, singlets) scrf=(solvent=acetoni
 trile) EmpiricalDispersion=GD3BJ
 ----------------------------------------------------------------------

 -
 -
 -
 Symbolic Z-matrix:
 Charge =  0 Multiplicity = 1

                         Standard orientation:
 ---------------------------------------------------------------------
 Center     Atomic      Atomic             Coordinates (Angstroms)
 Number     Number       Type             X           Y           Z
 ---------------------------------------------------------------------
      1          6           0       -0.075527    1.197302   -0.670965
      2          6           0        0.677247    2.203909   -0.030725
      3          6           0        0.190657    3.494622    0.164090
      4          6           0       -1.073875    3.780247   -0.311847
      5          6           0       -1.829971    2.803988   -0.976006
      6          6           0       -1.344923    1.524759   -1.162805
      7          6           0        0.777495    0.030851   -0.702449
      8          6           0        1.986006    0.391014   -0.129360
      9          1           0        0.781882    4.248943    0.666942
     10          1           0       -1.483879    4.773317   -0.175463
     11          1           0       -2.815100    3.057867   -1.347901
     12          1           0       -1.945954    0.791005   -1.679495
     13          7           0        1.913051    1.688315    0.305916
     14          6           0        2.971349    2.474030    0.913655
     15          1           0        2.756990    2.670375    1.965551
     16          1           0        3.911374    1.936435    0.837727
     17          1           0        3.069256    3.423308    0.386748
     18          7           0        0.640699   -1.251506   -1.259908
     19          7           0       -0.418833   -1.907077   -1.299515
     20          6           0       -1.599782   -1.529001   -0.597357
     21          6           0       -1.595962   -1.134494    0.742763
     22          6           0       -2.812317   -1.716552   -1.243598
     23          6           0       -2.784995   -0.890872    1.394614
     24          1           0       -0.659949   -1.026253    1.274213
     25          6           0       -4.014093   -1.439043   -0.606006
     26          1           0       -2.808991   -2.070161   -2.267402
     27          6           0       -4.002472   -1.019509    0.721199
     28          1           0       -2.799906   -0.590031    2.434390
     29          1           0       -4.941664   -1.568734   -1.144324
     30          8           0       -5.110678   -0.731518    1.443812
     31          6           0       -6.375487   -0.846663    0.809499
     32          1           0       -6.449959   -0.174104   -0.049036
     33          1           0       -6.564589   -1.873756    0.486705
     34          1           0       -7.111980   -0.561858    1.556344
     35          6           0        3.176972   -0.450039    0.078941
     36          6           0        3.805826   -1.051790   -1.010428
     37          6           0        3.683407   -0.663806    1.360556
     38          6           0        4.925965   -1.845386   -0.820111
     39          1           0        3.406247   -0.897429   -2.003682
     40          6           0        4.803817   -1.460114    1.548643
     41          1           0        3.191353   -0.214338    2.214766
     42          6           0        5.428404   -2.050555    0.458880
     43          1           0        5.409573   -2.304844   -1.673447
     44          1           0        5.186296   -1.621437    2.548957
     45          1           0        6.303577   -2.671665    0.605362
 ---------------------------------------------------------------------

 SCF Done:  E(RCAM-B3LYP) =  -1088.93601695     A.U. after   14 cycles

 Excitation energies and oscillator strengths:

 Excited State   1:      Singlet-A      2.6842 eV  461.91 nm  f=0.0940  <S**2>=0.000
      87 -> 91        -0.31997
      89 -> 91         0.11416
      90 -> 91         0.57389
      90 -> 92         0.11582
 This state for optimization and/or second-order correction.
 Total Energy, E(TD-HF/TD-DFT) =  -1088.83737526
 Copying the excited state density for this state as the 1-particle RhoCI density.

 Excited State   2:      Singlet-A      4.0282 eV  307.79 nm  f=0.3082  <S**2>=0.000
      83 -> 91        -0.11930
      85 -> 91        -0.12337
      87 -> 91         0.37250
      88 -> 91         0.21028
      89 -> 91        -0.32032
      90 -> 91         0.37138

 Excited State   3:      Singlet-A      4.3566 eV  284.59 nm  f=0.1147  <S**2>=0.000
      82 -> 91        -0.11022
      87 -> 91         0.23184
      88 -> 91         0.11382
      89 -> 91         0.54848
      90 -> 91         0.11022
      90 -> 92        -0.22710

 Excited State   4:      Singlet-A      4.4702 eV  277.36 nm  f=0.0708  <S**2>=0.000
      87 -> 91         0.26051
      88 -> 91        -0.10824
      89 -> 91         0.16765
      90 -> 92         0.58858

 Excited State   5:      Singlet-A      4.7013 eV  263.72 nm  f=0.2882  <S**2>=0.000
      86 -> 91         0.13049
      87 -> 91        -0.17776
      88 -> 91         0.51061
      89 -> 92        -0.14342
      90 -> 92         0.20121
      90 -> 93         0.25607

 Excited State   6:      Singlet-A      4.7616 eV  260.38 nm  f=0.1067  <S**2>=0.000
      85 -> 91        -0.10475
      86 -> 91         0.16534
      88 -> 91        -0.30061
      89 -> 93         0.25096
      90 -> 93         0.45185
      90 -> 94         0.13813
      90 -> 95        -0.10659

 Excited State   7:      Singlet-A      5.0861 eV  243.77 nm  f=0.0326  <S**2>=0.000
      88 -> 91         0.14732
      88 -> 92         0.39541
      88 -> 95        -0.15103
      88 -> 96        -0.10977
      89 -> 92         0.28388
      89 -> 93         0.11018
      89 -> 95        -0.16368
      90 -> 94         0.15304
      90 -> 96        -0.22342

 Excited State   8:      Singlet-A      5.2039 eV  238.25 nm  f=0.0093  <S**2>=0.000
      84 -> 94        -0.20027
      85 -> 91        -0.18769
      85 -> 92         0.18650
      85 -> 95         0.15076
      86 -> 92         0.10059
      87 -> 92         0.11547
      88 -> 94        -0.10060
      89 -> 94        -0.18567
      90 -> 93        -0.13409
      90 -> 94         0.42472
      90 -> 95        -0.11120

 Excited State   9:      Singlet-A      5.3261 eV  232.79 nm  f=0.0304  <S**2>=0.000
      88 -> 92        -0.11637
      89 -> 95        -0.13112
      90 -> 94         0.10767
      90 -> 95         0.61700

 Excited State  10:      Singlet-A      5.4219 eV  228.67 nm  f=0.0380  <S**2>=0.000
      85 -> 91        -0.23517
      86 -> 91         0.46633
      87 -> 93         0.10199
      89 -> 92        -0.13070
      90 -> 93        -0.33357
      90 -> 94        -0.10420
      90 -> 95         0.11490

 Excited State  11:      Singlet-A      5.5902 eV  221.79 nm  f=0.2550  <S**2>=0.000
      86 -> 91         0.20849
      87 -> 92        -0.21179
      88 -> 92        -0.21418
      88 -> 95         0.13131
      89 -> 92         0.46857
      90 -> 94         0.13316
      90 -> 96         0.21008

 Excited State  12:      Singlet-A      5.6453 eV  219.62 nm  f=0.1074  <S**2>=0.000
      84 -> 91         0.18731
      84 -> 94         0.15311
      85 -> 91         0.32565
      85 -> 92        -0.15251
      85 -> 95        -0.11136
      87 -> 91         0.10784
      87 -> 92        -0.10007
      88 -> 92        -0.12298
      89 -> 92        -0.13510
      90 -> 93        -0.16602
      90 -> 94         0.36485

 Excited State  13:      Singlet-A      5.7325 eV  216.28 nm  f=0.0425  <S**2>=0.000
      83 -> 91         0.12623
      84 -> 91         0.41074
      86 -> 91        -0.19925
      86 -> 92         0.10775
      88 -> 92        -0.23119
      89 -> 93         0.16442
      90 -> 94        -0.23301

 Excited State  14:      Singlet-A      5.8406 eV  212.28 nm  f=0.0634  <S**2>=0.000
      84 -> 91        -0.16396
      86 -> 91        -0.10104
      88 -> 93        -0.13585
      89 -> 93         0.30299
      89 -> 97        -0.10569
      90 -> 93        -0.13212
      90 -> 96         0.36114
      90 -> 97        -0.31026

 Excited State  15:      Singlet-A      5.8949 eV  210.33 nm  f=0.0730  <S**2>=0.000
      84 -> 91         0.38634
      86 -> 91         0.13954
      87 -> 92         0.11971
      88 -> 92         0.11491
      89 -> 93        -0.26778
      89 -> 96         0.10369
      90 -> 93         0.11049
      90 -> 96         0.23879
      90 -> 97        -0.23632

 Excited State  16:      Singlet-A      5.9876 eV  207.07 nm  f=0.1555  <S**2>=0.000
      83 -> 91         0.20016
      84 -> 91         0.11285
      85 -> 91         0.18017
      87 -> 91         0.13475
      88 -> 92         0.23620
      89 -> 96        -0.14289
      90 -> 96         0.31268
      90 -> 97         0.38405

 Excited State  17:      Singlet-A      6.0936 eV  203.47 nm  f=0.0847  <S**2>=0.000
      82 -> 91        -0.14172
      83 -> 91         0.49719
      85 -> 91        -0.21332
      88 -> 92        -0.10098
      88 -> 93         0.10172
      88 -> 95        -0.13770
      89 -> 92        -0.11615
      89 -> 93        -0.18141

 Excited State  18:      Singlet-A      6.1162 eV  202.72 nm  f=0.0269  <S**2>=0.000
      84 -> 91        -0.10691
      84 -> 94        -0.18661
      85 -> 91         0.38067
      85 -> 92         0.15368
      85 -> 95         0.13955
      86 -> 91         0.26422
      88 -> 92        -0.10435
      88 -> 94        -0.11814
      89 -> 94        -0.11674
      90 -> 94        -0.13026
      90 -> 96        -0.14508
      90 -> 97        -0.16761

 Excited State  19:      Singlet-A      6.1790 eV  200.65 nm  f=0.0083  <S**2>=0.000
      85 -> 92        -0.12842
      87 -> 92         0.50563
      87 -> 93        -0.13841
      88 -> 92        -0.12544
      88 -> 93        -0.12792
      89 -> 92         0.13907
      89 -> 95        -0.18885
      90 -> 97         0.15559

 Excited State  20:      Singlet-A      6.2409 eV  198.66 nm  f=0.0514  <S**2>=0.000
      83 -> 91         0.16081
      84 -> 91         0.13044
      84 -> 92         0.18457
      84 -> 95         0.10612
      85 -> 94         0.21699
      86 -> 94         0.12705
      87 -> 92         0.14452
      88 -> 92         0.12960
      88 -> 95         0.32427
      89 -> 95         0.28167
      90 -> 96        -0.10859

 The electronic state is 1-A.
 Alpha  occ. eigenvalues --  -19.22669 -14.44508 -14.43708 -14.42925 -10.31539
 Alpha  occ. eigenvalues --  -10.30107 -10.29367 -10.28416 -10.28278 -10.27573
 Alpha  occ. eigenvalues --  -10.27102 -10.26993 -10.25688 -10.25640 -10.25567
 Alpha  occ. eigenvalues --  -10.25533 -10.25429 -10.25313 -10.25257 -10.25187
 Alpha  occ. eigenvalues --  -10.25157 -10.25125 -10.24949 -10.24803 -10.24695
 Alpha  occ. eigenvalues --  -10.24269  -1.15845  -1.11996  -1.09018  -0.95942
 Alpha  occ. eigenvalues --   -0.95578  -0.94207  -0.90963  -0.86486  -0.86250
 Alpha  occ. eigenvalues --   -0.84404  -0.83932  -0.83462  -0.81551  -0.80297
 Alpha  occ. eigenvalues --   -0.78294  -0.73482  -0.71751  -0.70243  -0.69666
 Alpha  occ. eigenvalues --   -0.68674  -0.67635  -0.65409  -0.63989  -0.62324
 Alpha  occ. eigenvalues --   -0.60400  -0.59999  -0.57444  -0.57111  -0.55812
 Alpha  occ. eigenvalues --   -0.55433  -0.54690  -0.54428  -0.52756  -0.52564
 Alpha  occ. eigenvalues --   -0.52005  -0.51628  -0.51022  -0.50306  -0.49986
 Alpha  occ. eigenvalues --   -0.49716  -0.49331  -0.48260  -0.47685  -0.47210
 Alpha  occ. eigenvalues --   -0.46496  -0.45350  -0.45050  -0.44597  -0.43157
 Alpha  occ. eigenvalues --   -0.42931  -0.41954  -0.41777  -0.41632  -0.40406
 Alpha  occ. eigenvalues --   -0.39851  -0.38477  -0.34617  -0.32723  -0.32190
 Alpha  occ. eigenvalues --   -0.31992  -0.30518  -0.28699  -0.27979  -0.24763
 Alpha virt. eigenvalues --   -0.02610   0.00805   0.02671   0.03008   0.03684
 Alpha virt. eigenvalues --    0.05637   0.06726   0.07968   0.09048   0.09826
 Alpha virt. eigenvalues --    0.10449   0.11236   0.12170   0.12397   0.12800

 Mulliken charges:
               1
     1  C   -0.059778
     2  C    0.208991
     3  C   -0.088053
     4  C   -0.131671
     5  C   -0.140030
     6  C   -0.053207
     7  C   -0.127716
     8  C    0.302948
     9  H    0.129216
    10  H    0.118019
    11  H    0.114768
    12  H    0.122982
    13  N   -0.472346
    14  C   -0.182553
    15  H    0.150440
    16  H    0.151509
    17  H    0.145146
    18  N   -0.176651
    19  N   -0.182785
    20  C   -0.091555
    21  C   -0.026530
    22  C   -0.068368
    23  C   -0.108943
    24  H    0.140452
    25  C   -0.148252
    26  H    0.117765
    27  C    0.162568
    28  H    0.123546
    29  H    0.141272
    30  O   -0.349560
    31  C   -0.159309
    32  H    0.128935
    33  H    0.129198
    34  H    0.143036
    35  C   -0.140915
    36  C   -0.031403
    37  C   -0.068703
    38  C   -0.118754
    39  H    0.114338
    40  C   -0.111385
    41  H    0.127720
    42  C   -0.108654
    43  H    0.124273
    44  H    0.124724
    45  H    0.125275
 Sum of Mulliken charges =  -0.00000

 Dipole moment (field-independent basis, Debye):
    X=              0.3906    Y=              3.8595    Z=              2.7722  Tot=              4.7679
 Quadrupole moment (field-independent basis, Debye-Ang):
   XX=           -105.4340   YY=           -149.5368   ZZ=           -148.8112
   XY=              5.1753   XZ=             13.0121   YZ=              1.6571

 Normal termination of Gaussian 16 at Wed Dec 18 00:59:49 2024.
