 Gaussian 16, Revision C.01,
 Gaussian 16:  ES64L-G16RevC.01  3-Jul-2019

 ----------------------------------------------------------------------
 # CAM-B3LYP/6-311G(d,p) td(nstates=20, singlets) scrf=(solvent=acetoni
 trile) EmpiricalDispersion=GD3BJ
 ----------------------------------------------------------------------

 -
 -
 -
 Symbolic Z-matrix:
 Charge =  0 Multiplicity = 1

                         Standard orientation:
 ---------------------------------------------------------------------
 Center     Atomic      Atomic             Coordinates (Angstroms)
 Number     Number       Type             X           Y           Z
 ---------------------------------------------------------------------
      1          6           0       -2.877377   -0.472388    0.458932
      2          6           0       -3.066007    0.258781   -0.730022
      3          6           0       -4.227646    0.137126   -1.491696
      4          6           0       -5.198878   -0.734481   -1.036848
      5          6           0       -5.023814   -1.472811    0.145461
      6          6           0       -3.870186   -1.354785    0.894790
      7          6           0       -1.577726   -0.119744    0.947933
      8          6           0       -1.048737    0.821979    0.087890
      9          1           0       -4.365168    0.696542   -2.408181
     10          1           0       -6.112720   -0.853689   -1.605953
     11          1           0       -5.808266   -2.145660    0.469700
     12          1           0       -3.734103   -1.926404    1.804547
     13          7           0       -1.954996    1.048338   -0.929940
     14          6           0       -1.862168    2.052204   -1.974005
     15          1           0       -2.804977    2.595190   -2.041466
     16          1           0       -1.072187    2.756828   -1.731780
     17          1           0       -1.644715    1.594803   -2.941033
     18          7           0       -1.095475   -0.605504    2.183285
     19          7           0        0.061304   -1.026722    2.362124
     20          6           0        0.993419   -1.208685    1.294581
     21          6           0        0.679073   -1.887870    0.115578
     22          6           0        2.299115   -0.807009    1.521248
     23          6           0        1.654825   -2.106509   -0.832110
     24          1           0       -0.326533   -2.249001   -0.054233
     25          6           0        3.281129   -0.996502    0.559187
     26          1           0        2.540942   -0.315981    2.455205
     27          6           0        2.956555   -1.639791   -0.629716
     28          1           0        1.432386   -2.634599   -1.750582
     29          1           0        4.283263   -0.641343    0.748810
     30          8           0        3.830399   -1.869826   -1.639540
     31          6           0        5.159474   -1.392498   -1.496202
     32          1           0        5.177376   -0.306808   -1.369477
     33          1           0        5.662280   -1.867146   -0.649473
     34          1           0        5.674229   -1.657911   -2.416011
     35          6           0        0.227039    1.544334    0.181773
     36          6           0        0.557278    2.223086    1.353748
     37          6           0        1.135316    1.532762   -0.876526
     38          6           0        1.774614    2.876928    1.465343
     39          1           0       -0.145101    2.235007    2.178049
     40          6           0        2.349932    2.189795   -0.763811
     41          1           0        0.899642    0.984227   -1.779660
     42          6           0        2.672779    2.863067    0.406611
     43          1           0        2.020965    3.401063    2.380610
     44          1           0        3.051327    2.165775   -1.588736
     45          1           0        3.624289    3.372994    0.494863
 ---------------------------------------------------------------------

 SCF Done:  E(RCAM-B3LYP) =  -1088.93914743     A.U. after   14 cycles

 Excitation energies and oscillator strengths:

 Excited State   1:      Singlet-A      2.6891 eV  461.07 nm  f=0.0570  <S**2>=0.000
      87 -> 91         0.33236
      89 -> 91         0.10545
      90 -> 91         0.57699
 This state for optimization and/or second-order correction.
 Total Energy, E(TD-HF/TD-DFT) =  -1088.84032601
 Copying the excited state density for this state as the 1-particle RhoCI density.

 Excited State   2:      Singlet-A      3.8904 eV  318.69 nm  f=0.0679  <S**2>=0.000
      83 -> 91         0.16148
      84 -> 91         0.14731
      87 -> 91         0.39025
      89 -> 91         0.35681
      90 -> 91        -0.36269

 Excited State   3:      Singlet-A      4.2673 eV  290.54 nm  f=0.0374  <S**2>=0.000
      82 -> 91        -0.11640
      87 -> 91        -0.24896
      88 -> 91         0.10766
      89 -> 91         0.45100
      90 -> 91         0.14130
      90 -> 92        -0.37971

 Excited State   4:      Singlet-A      4.4610 eV  277.93 nm  f=0.3223  <S**2>=0.000
      87 -> 91        -0.25108
      88 -> 91         0.27565
      89 -> 91         0.21334
      90 -> 92         0.52311

 Excited State   5:      Singlet-A      4.6607 eV  266.02 nm  f=0.3255  <S**2>=0.000
      83 -> 91         0.10208
      88 -> 91         0.56675
      88 -> 92        -0.12993
      89 -> 91        -0.25036
      89 -> 92         0.11140
      90 -> 92        -0.18407

 Excited State   6:      Singlet-A      4.7908 eV  258.80 nm  f=0.0365  <S**2>=0.000
      85 -> 91        -0.22390
      86 -> 91         0.16386
      88 -> 94         0.12839
      89 -> 93        -0.15702
      89 -> 94         0.22236
      90 -> 93        -0.31328
      90 -> 94         0.40933

 Excited State   7:      Singlet-A      5.0331 eV  246.34 nm  f=0.0217  <S**2>=0.000
      88 -> 91         0.19245
      88 -> 92         0.39658
      88 -> 95         0.17809
      88 -> 96         0.10186
      89 -> 92        -0.30973
      89 -> 95        -0.12317
      90 -> 96        -0.25299

 Excited State   8:      Singlet-A      5.1715 eV  239.74 nm  f=0.0058  <S**2>=0.000
      84 -> 93        -0.13837
      84 -> 94        -0.10112
      85 -> 92        -0.13918
      86 -> 91         0.21141
      86 -> 92        -0.15362
      86 -> 95         0.13068
      88 -> 92        -0.17063
      89 -> 93        -0.17718
      90 -> 93         0.40044
      90 -> 94         0.20759
      90 -> 95         0.13070

 Excited State   9:      Singlet-A      5.2193 eV  237.55 nm  f=0.0140  <S**2>=0.000
      88 -> 92        -0.17338
      89 -> 92        -0.18495
      90 -> 92        -0.10125
      90 -> 93        -0.14608
      90 -> 94        -0.22736
      90 -> 95         0.55466

 Excited State  10:      Singlet-A      5.4111 eV  229.13 nm  f=0.0244  <S**2>=0.000
      85 -> 91         0.39374
      86 -> 91        -0.17785
      87 -> 91        -0.10479
      89 -> 92        -0.27221
      89 -> 95         0.11768
      90 -> 93        -0.29664
      90 -> 95        -0.16163
      90 -> 96         0.10913

 Excited State  11:      Singlet-A      5.4302 eV  228.32 nm  f=0.1257  <S**2>=0.000
      85 -> 91        -0.13533
      86 -> 91         0.40655
      89 -> 92        -0.11302
      89 -> 93        -0.14328
      90 -> 93        -0.17266
      90 -> 94        -0.39083
      90 -> 95        -0.18412

 Excited State  12:      Singlet-A      5.5146 eV  224.83 nm  f=0.2121  <S**2>=0.000
      84 -> 91        -0.11994
      85 -> 91         0.24211
      86 -> 92        -0.15280
      89 -> 92         0.42408
      89 -> 94        -0.12500
      89 -> 95        -0.13949
      90 -> 93        -0.23918
      90 -> 95         0.13432
      90 -> 96        -0.18810

 Excited State  13:      Singlet-A      5.7271 eV  216.49 nm  f=0.0197  <S**2>=0.000
      84 -> 91         0.44931
      87 -> 91        -0.21474
      87 -> 92         0.27692
      88 -> 92         0.21022
      89 -> 92         0.12910
      90 -> 95         0.10666

 Excited State  14:      Singlet-A      5.7999 eV  213.77 nm  f=0.0359  <S**2>=0.000
      84 -> 91         0.18624
      84 -> 93         0.10082
      85 -> 91         0.32070
      85 -> 92         0.11268
      86 -> 91         0.42071
      86 -> 92         0.17419
      86 -> 95        -0.10377
      89 -> 93         0.25335

 Excited State  15:      Singlet-A      5.8588 eV  211.62 nm  f=0.0487  <S**2>=0.000
      84 -> 91        -0.18714
      85 -> 91         0.27343
      88 -> 93        -0.11016
      88 -> 94         0.12296
      89 -> 93        -0.23722
      89 -> 94         0.40324
      90 -> 93         0.11833
      90 -> 94        -0.14461
      90 -> 96         0.14737
      90 -> 97         0.11159

 Excited State  16:      Singlet-A      5.9222 eV  209.36 nm  f=0.3122  <S**2>=0.000
      88 -> 92        -0.20806
      89 -> 96         0.15327
      89 -> 97         0.15343
      90 -> 96        -0.19908
      90 -> 97         0.52746

 Excited State  17:      Singlet-A      5.9686 eV  207.73 nm  f=0.1928  <S**2>=0.000
      87 -> 92        -0.20345
      87 -> 94         0.11270
      88 -> 92         0.26992
      89 -> 94        -0.15048
      90 -> 96         0.43049
      90 -> 97         0.24053

 Excited State  18:      Singlet-A      6.0179 eV  206.03 nm  f=0.0123  <S**2>=0.000
      84 -> 91        -0.36656
      87 -> 92         0.45900
      88 -> 92         0.10864
      89 -> 95         0.20639
      90 -> 95         0.12409

 Excited State  19:      Singlet-A      6.0956 eV  203.40 nm  f=0.0109  <S**2>=0.000
      83 -> 91         0.53782
      87 -> 92        -0.17178
      88 -> 91        -0.13377
      88 -> 95        -0.17201
      89 -> 95         0.11103

 Excited State  20:      Singlet-A      6.2407 eV  198.67 nm  f=0.1016  <S**2>=0.000
      83 -> 91         0.16707
      84 -> 92         0.13793
      85 -> 92         0.14091
      86 -> 93        -0.23298
      88 -> 92        -0.14073
      88 -> 94        -0.13361
      88 -> 95         0.33781
      89 -> 95        -0.18687
      90 -> 96         0.19247
      90 -> 97        -0.15268

 The electronic state is 1-A.
 Alpha  occ. eigenvalues --  -19.22556 -14.44198 -14.44189 -14.43690 -10.31319
 Alpha  occ. eigenvalues --  -10.29818 -10.29318 -10.28194 -10.28127 -10.27520
 Alpha  occ. eigenvalues --  -10.26954 -10.26819 -10.25618 -10.25398 -10.25375
 Alpha  occ. eigenvalues --  -10.25370 -10.25181 -10.25135 -10.25100 -10.25100
 Alpha  occ. eigenvalues --  -10.25054 -10.24874 -10.24825 -10.24813 -10.24632
 Alpha  occ. eigenvalues --  -10.24244  -1.15707  -1.12576  -1.08666  -0.95867
 Alpha  occ. eigenvalues --   -0.95418  -0.94130  -0.90720  -0.86557  -0.86042
 Alpha  occ. eigenvalues --   -0.84238  -0.83855  -0.83408  -0.81276  -0.80200
 Alpha  occ. eigenvalues --   -0.78221  -0.73488  -0.71505  -0.70157  -0.69601
 Alpha  occ. eigenvalues --   -0.68449  -0.67517  -0.65884  -0.63878  -0.62206
 Alpha  occ. eigenvalues --   -0.60335  -0.59833  -0.57433  -0.57209  -0.55530
 Alpha  occ. eigenvalues --   -0.55253  -0.54576  -0.54442  -0.52612  -0.52484
 Alpha  occ. eigenvalues --   -0.51978  -0.51158  -0.50955  -0.50226  -0.50017
 Alpha  occ. eigenvalues --   -0.49616  -0.49427  -0.48190  -0.47630  -0.47279
 Alpha  occ. eigenvalues --   -0.46707  -0.45468  -0.44988  -0.44230  -0.43052
 Alpha  occ. eigenvalues --   -0.42840  -0.41864  -0.41798  -0.40946  -0.40298
 Alpha  occ. eigenvalues --   -0.39751  -0.38578  -0.34712  -0.33024  -0.32106
 Alpha  occ. eigenvalues --   -0.31798  -0.30599  -0.28438  -0.27816  -0.24748
 Alpha virt. eigenvalues --   -0.02473   0.00598   0.02933   0.03089   0.03851
 Alpha virt. eigenvalues --    0.05733   0.06692   0.07593   0.09135   0.10279
 Alpha virt. eigenvalues --    0.10427   0.10745   0.11607   0.12067   0.13092

 Mulliken charges:
               1
     1  C   -0.023274
     2  C    0.195395
     3  C   -0.086996
     4  C   -0.134511
     5  C   -0.136811
     6  C   -0.073133
     7  C   -0.165764
     8  C    0.358446
     9  H    0.127397
    10  H    0.117753
    11  H    0.116363
    12  H    0.105673
    13  N   -0.475618
    14  C   -0.182627
    15  H    0.142773
    16  H    0.150565
    17  H    0.148727
    18  N   -0.171477
    19  N   -0.165889
    20  C   -0.098185
    21  C   -0.010037
    22  C   -0.027556
    23  C   -0.123371
    24  H    0.135752
    25  C   -0.153198
    26  H    0.113819
    27  C    0.168323
    28  H    0.121771
    29  H    0.137496
    30  O   -0.351445
    31  C   -0.160559
    32  H    0.128339
    33  H    0.128420
    34  H    0.142229
    35  C   -0.187348
    36  C   -0.050791
    37  C   -0.051747
    38  C   -0.113561
    39  H    0.118879
    40  C   -0.097499
    41  H    0.124543
    42  C   -0.110702
    43  H    0.122600
    44  H    0.123879
    45  H    0.122957
 Sum of Mulliken charges =  -0.00000

 Dipole moment (field-independent basis, Debye):
    X=              4.0597    Y=              4.0100    Z=             -5.5862  Tot=              7.9854
 Quadrupole moment (field-independent basis, Debye-Ang):
   XX=           -124.5994   YY=           -149.3988   ZZ=           -153.4630
   XY=              4.0135   XZ=              7.3727   YZ=              0.7997

 Normal termination of Gaussian 16 at Wed Dec 18 01:04:58 2024.
