 Gaussian 16, Revision C.01,
 Gaussian 16:  ES64L-G16RevC.01  3-Jul-2019

 ----------------------------------------------------------------------
 # CAM-B3LYP/6-311G(d,p) td(nstates=20, singlets) scrf=(solvent=acetoni
 trile) EmpiricalDispersion=GD3BJ
 ----------------------------------------------------------------------

 -
 -
 -
 Symbolic Z-matrix:
 Charge =  0 Multiplicity = 1

                         Standard orientation:
 ---------------------------------------------------------------------
 Center     Atomic      Atomic             Coordinates (Angstroms)
 Number     Number       Type             X           Y           Z
 ---------------------------------------------------------------------
      1          6           0        2.580328   -0.488263   -0.059931
      2          6           0        2.701478    0.908923    0.017988
      3          6           0        3.936357    1.553523    0.020479
      4          6           0        5.062917    0.757322   -0.057683
      5          6           0        4.962144   -0.641488   -0.135910
      6          6           0        3.733582   -1.272395   -0.137824
      7          6           0        1.168603   -0.789642   -0.037328
      8          6           0        0.514815    0.434925    0.051934
      9          1           0        4.014281    2.631544    0.080464
     10          1           0        6.042095    1.220027   -0.058620
     11          1           0        5.867775   -1.232749   -0.195783
     12          1           0        3.656650   -2.350418   -0.197872
     13          1           0       -0.531910    0.675817    0.093955
     14          7           0        1.424024    1.437566    0.084770
     15          6           0        1.114358    2.852068    0.176937
     16          1           0        1.489811    3.380790   -0.699902
     17          1           0        0.035171    2.972768    0.229574
     18          1           0        1.564048    3.279914    1.073590
     19          7           0        0.769102   -2.123025   -0.109899
     20          7           0       -0.407605   -2.538338   -0.092928
     21          6           0       -1.496832   -1.616507    0.017103
     22          6           0       -1.981277   -1.257181    1.272549
     23          6           0       -2.115870   -1.131080   -1.122140
     24          6           0       -3.046713   -0.385329    1.378243
     25          1           0       -1.508757   -1.653268    2.163113
     26          6           0       -3.188603   -0.251486   -1.023186
     27          1           0       -1.749667   -1.427398   -2.097533
     28          6           0       -3.652829    0.131611    0.231556
     29          1           0       -3.432367   -0.088643    2.345344
     30          1           0       -3.649375    0.120426   -1.926854
     31          8           0       -4.688220    0.982771    0.440470
     32          6           0       -5.334326    1.542443   -0.692095
     33          1           0       -4.638083    2.132310   -1.294475
     34          1           0       -5.787846    0.766387   -1.314468
     35          1           0       -6.113523    2.192240   -0.302043
 ---------------------------------------------------------------------

 SCF Done:  E(RCAM-B3LYP) =  -857.948093909     A.U. after   14 cycles

 Excitation energies and oscillator strengths:

 Excited State   1:      Singlet-A      3.0695 eV  403.92 nm  f=0.0030  <S**2>=0.000
      67 -> 71        -0.42594
      69 -> 71         0.52469
 This state for optimization and/or second-order correction.
 Total Energy, E(TD-HF/TD-DFT) =  -857.835292076
 Copying the excited state density for this state as the 1-particle RhoCI density.

 Excited State   2:      Singlet-A      4.1968 eV  295.43 nm  f=0.3280  <S**2>=0.000
      70 -> 71         0.68003

 Excited State   3:      Singlet-A      4.3763 eV  283.31 nm  f=0.0007  <S**2>=0.000
      64 -> 71         0.19958
      67 -> 71         0.50620
      69 -> 71         0.41916

 Excited State   4:      Singlet-A      4.8157 eV  257.46 nm  f=0.0729  <S**2>=0.000
      68 -> 71         0.60946
      68 -> 73         0.11202
      70 -> 72        -0.22514
      70 -> 73        -0.12008
      70 -> 75        -0.15475

 Excited State   5:      Singlet-A      4.9255 eV  251.72 nm  f=0.0513  <S**2>=0.000
      66 -> 74        -0.21079
      69 -> 72         0.51999
      69 -> 73        -0.39164

 Excited State   6:      Singlet-A      5.2256 eV  237.26 nm  f=0.4686  <S**2>=0.000
      68 -> 71         0.14711
      68 -> 72         0.19533
      68 -> 73         0.12765
      68 -> 75         0.10794
      69 -> 74         0.10116
      70 -> 72         0.48195
      70 -> 73         0.34505
      70 -> 75        -0.15007

 Excited State   7:      Singlet-A      5.4044 eV  229.41 nm  f=0.0797  <S**2>=0.000
      65 -> 75        -0.11565
      68 -> 71        -0.30275
      68 -> 72         0.36412
      68 -> 73         0.31105
      70 -> 72        -0.23713
      70 -> 75        -0.29399

 Excited State   8:      Singlet-A      5.6885 eV  217.96 nm  f=0.1121  <S**2>=0.000
      66 -> 72         0.15162
      66 -> 73        -0.12593
      69 -> 74         0.59541
      70 -> 72        -0.18452
      70 -> 73         0.15006

 Excited State   9:      Singlet-A      5.7348 eV  216.20 nm  f=0.0098  <S**2>=0.000
      66 -> 71         0.68939

 Excited State  10:      Singlet-A      5.8832 eV  210.74 nm  f=0.2000  <S**2>=0.000
      68 -> 72        -0.12820
      69 -> 74        -0.22471
      70 -> 72        -0.29084
      70 -> 73         0.54367

 Excited State  11:      Singlet-A      5.9179 eV  209.51 nm  f=0.0025  <S**2>=0.000
      66 -> 74        -0.11339
      67 -> 71         0.10846
      67 -> 72         0.43175
      69 -> 71        -0.11941
      69 -> 72        -0.34423
      69 -> 73        -0.34539

 Excited State  12:      Singlet-A      6.1677 eV  201.02 nm  f=0.0110  <S**2>=0.000
      66 -> 74        -0.10813
      67 -> 72         0.23520
      67 -> 73        -0.29943
      69 -> 73         0.29136
      70 -> 74         0.45786

 Excited State  13:      Singlet-A      6.2197 eV  199.34 nm  f=0.0763  <S**2>=0.000
      65 -> 71         0.63880
      69 -> 74        -0.11064
      70 -> 75         0.17446

 Excited State  14:      Singlet-A      6.2356 eV  198.83 nm  f=0.0331  <S**2>=0.000
      65 -> 74        -0.11653
      67 -> 72        -0.30801
      67 -> 73         0.29466
      69 -> 72        -0.10322
      69 -> 73        -0.19358
      70 -> 74         0.46759

 Excited State  15:      Singlet-A      6.3919 eV  193.97 nm  f=0.5350  <S**2>=0.000
      65 -> 71        -0.16788
      68 -> 72         0.33394
      68 -> 73         0.15620
      70 -> 75         0.53792

 Excited State  16:      Singlet-A      6.5252 eV  190.01 nm  f=0.0106  <S**2>=0.000
      66 -> 72         0.26563
      66 -> 73        -0.20402
      67 -> 74         0.56818
      68 -> 73         0.10708

 Excited State  17:      Singlet-A      6.6354 eV  186.85 nm  f=0.1820  <S**2>=0.000
      65 -> 72         0.18339
      65 -> 73         0.15814
      67 -> 74         0.10119
      68 -> 72         0.15289
      68 -> 73        -0.21821
      68 -> 75         0.55862
      70 -> 73        -0.11201

 Excited State  18:      Singlet-A      6.6495 eV  186.46 nm  f=0.0016  <S**2>=0.000
      56 -> 71         0.12856
      58 -> 71        -0.17617
      60 -> 71        -0.20016
      62 -> 71         0.22750
      64 -> 71         0.44504
      67 -> 71        -0.17524
      67 -> 72        -0.10794
      67 -> 73        -0.22560
      69 -> 71        -0.10856

 Excited State  19:      Singlet-A      6.8629 eV  180.66 nm  f=0.0157  <S**2>=0.000
      60 -> 71        -0.10771
      62 -> 71         0.13079
      64 -> 71         0.18396
      66 -> 74         0.16680
      67 -> 72         0.31274
      67 -> 73         0.40084
      67 -> 83        -0.10868
      69 -> 72         0.24034
      69 -> 73         0.17659
      69 -> 75         0.10413

 Excited State  20:      Singlet-A      6.9385 eV  178.69 nm  f=0.4075  <S**2>=0.000
      65 -> 73         0.14050
      66 -> 72         0.34219
      66 -> 73        -0.19160
      67 -> 74        -0.33299
      68 -> 72        -0.19729
      68 -> 73         0.30753
      68 -> 75         0.16065
      69 -> 74        -0.15190

 The electronic state is 1-A.
 Alpha  occ. eigenvalues --  -19.22514 -14.45317 -14.44148 -14.42469 -10.31425
 Alpha  occ. eigenvalues --  -10.29883 -10.29339 -10.28715 -10.28451 -10.27667
 Alpha  occ. eigenvalues --  -10.27284 -10.25684 -10.25660 -10.25395 -10.25307
 Alpha  occ. eigenvalues --  -10.25253 -10.25153 -10.24921 -10.24812 -10.24496
 Alpha  occ. eigenvalues --   -1.15681  -1.12123  -1.09467  -0.95819  -0.94511
 Alpha  occ. eigenvalues --   -0.90674  -0.86406  -0.84555  -0.84135  -0.81903
 Alpha  occ. eigenvalues --   -0.81312  -0.78365  -0.73622  -0.70931  -0.70298
 Alpha  occ. eigenvalues --   -0.68640  -0.66871  -0.64226  -0.62387  -0.60242
 Alpha  occ. eigenvalues --   -0.57951  -0.57339  -0.56038  -0.55345  -0.55000
 Alpha  occ. eigenvalues --   -0.54535  -0.52607  -0.51407  -0.51159  -0.50480
 Alpha  occ. eigenvalues --   -0.49973  -0.49434  -0.48300  -0.48035  -0.47406
 Alpha  occ. eigenvalues --   -0.47032  -0.45458  -0.44217  -0.43206  -0.42634
 Alpha  occ. eigenvalues --   -0.41044  -0.41007  -0.39937  -0.38436  -0.34373
 Alpha  occ. eigenvalues --   -0.32654  -0.30796  -0.29314  -0.27106  -0.26862
 Alpha virt. eigenvalues --   -0.01996   0.01887   0.03076   0.04530   0.05585
 Alpha virt. eigenvalues --    0.08320   0.09395   0.10512   0.10936   0.11981
 Alpha virt. eigenvalues --    0.12431   0.13414   0.13985   0.15332   0.15653

 Mulliken charges:
               1
     1  C   -0.085543
     2  C    0.202714
     3  C   -0.069319
     4  C   -0.134893
     5  C   -0.130488
     6  C   -0.072350
     7  C   -0.084514
     8  C    0.187484
     9  H    0.128755
    10  H    0.119705
    11  H    0.118607
    12  H    0.104524
    13  H    0.173886
    14  N   -0.439954
    15  C   -0.166866
    16  H    0.150158
    17  H    0.143092
    18  H    0.149809
    19  N   -0.188671
    20  N   -0.166352
    21  C   -0.154595
    22  C   -0.030588
    23  C   -0.031515
    24  C   -0.120189
    25  H    0.117762
    26  C   -0.161257
    27  H    0.117285
    28  C    0.169310
    29  H    0.125422
    30  H    0.142392
    31  O   -0.352694
    32  C   -0.159325
    33  H    0.127305
    34  H    0.128400
    35  H    0.142505
 Sum of Mulliken charges =  -0.00000

 Dipole moment (field-independent basis, Debye):
    X=             -1.9998    Y=              8.5266    Z=             -1.0654  Tot=              8.8225
 Quadrupole moment (field-independent basis, Debye-Ang):
   XX=           -102.5578   YY=           -117.0347   ZZ=           -113.8167
   XY=             -0.8456   XZ=              8.4938   YZ=             -2.2530

 Normal termination of Gaussian 16 at Wed Dec 18 00:07:29 2024.
