 Gaussian 16, Revision C.01,
 Gaussian 16:  ES64L-G16RevC.01  3-Jul-2019

 ----------------------------------------------------------------------
 # opt cam-b3lyp/6-311g(d,p) scrf=(solvent=acetonitrile) empiricaldispe
 rsion=gd3bj
 ----------------------------------------------------------------------

 -
 -
 -
 Symbolic Z-matrix:
 Charge =  1 Multiplicity = 1

 SCF Done:  E(RCAM-B3LYP) =  -1089.39333725     A.U. after   15 cycles
 SCF Done:  E(RCAM-B3LYP) =  -1089.40371091     A.U. after   12 cycles
 SCF Done:  E(RCAM-B3LYP) =  -1089.40570594     A.U. after   12 cycles
 SCF Done:  E(RCAM-B3LYP) =  -1089.40596223     A.U. after   11 cycles
 SCF Done:  E(RCAM-B3LYP) =  -1089.40599662     A.U. after   11 cycles
 SCF Done:  E(RCAM-B3LYP) =  -1089.40600568     A.U. after   10 cycles
 SCF Done:  E(RCAM-B3LYP) =  -1089.40600665     A.U. after    7 cycles
 SCF Done:  E(RCAM-B3LYP) =  -1089.40600697     A.U. after    7 cycles
 SCF Done:  E(RCAM-B3LYP) =  -1089.40600707     A.U. after    7 cycles
 SCF Done:  E(RCAM-B3LYP) =  -1089.40600715     A.U. after    6 cycles
 SCF Done:  E(RCAM-B3LYP) =  -1089.40600717     A.U. after    6 cycles
 SCF Done:  E(RCAM-B3LYP) =  -1089.40600717     A.U. after    6 cycles
 Optimization completed.
    -- Stationary point found.

                         Standard orientation:
 ---------------------------------------------------------------------
 Center     Atomic      Atomic             Coordinates (Angstroms)
 Number     Number       Type             X           Y           Z
 ---------------------------------------------------------------------
      1          6           0        1.906000   -1.813582    0.029165
      2          6           0        3.268587   -1.484279    0.012129
      3          6           0        4.273288   -2.432286   -0.027061
      4          6           0        3.884878   -3.763890   -0.051137
      5          6           0        2.537384   -4.119126   -0.039787
      6          6           0        1.539000   -3.156857   -0.001276
      7          6           0        1.204916   -0.537803    0.054972
      8          6           0        2.200597    0.490423    0.057349
      9          1           0        5.318494   -2.155784   -0.045827
     10          1           0        4.641454   -4.536944   -0.083218
     11          1           0        2.262231   -5.165481   -0.062566
     12          1           0        0.508058   -3.484350    0.002084
     13          7           0        3.400853   -0.081827    0.040825
     14          6           0        4.698295    0.576374    0.129950
     15          1           0        5.208657    0.532851   -0.831759
     16          1           0        4.558241    1.610990    0.424362
     17          1           0        5.296091    0.067255    0.883455
     18          7           0       -0.062379   -0.184150    0.027958
     19          7           0       -0.998405   -1.047174    0.045884
     20          6           0       -2.357858   -0.671653    0.002229
     21          6           0       -2.733258    0.668962   -0.071861
     22          6           0       -3.317043   -1.670579    0.034196
     23          6           0       -4.070169    0.991787   -0.110242
     24          1           0       -1.976938    1.440648   -0.099061
     25          6           0       -4.664644   -1.344566   -0.005596
     26          1           0       -3.021496   -2.711683    0.090872
     27          6           0       -5.048307   -0.008251   -0.077885
     28          1           0       -4.390010    2.023882   -0.167910
     29          1           0       -5.397164   -2.137431    0.020255
     30          8           0       -6.327165    0.418436   -0.121971
     31          6           0       -7.365981   -0.551800   -0.095669
     32          1           0       -7.299610   -1.222755   -0.955622
     33          1           0       -7.337829   -1.133723    0.828870
     34          1           0       -8.296460    0.007199   -0.143421
     35          6           0        1.960505    1.932213    0.052975
     36          6           0        2.588533    2.750361   -0.888578
     37          6           0        1.066588    2.490602    0.968827
     38          6           0        2.324592    4.109586   -0.910497
     39          1           0        3.259237    2.320389   -1.621357
     40          6           0        0.817408    3.852793    0.948090
     41          1           0        0.582485    1.859728    1.701219
     42          6           0        1.442902    4.662366    0.009069
     43          1           0        2.805468    4.737031   -1.649853
     44          1           0        0.132139    4.282852    1.667255
     45          1           0        1.241588    5.726189   -0.007543
     46          1           0       -0.795074   -2.041044    0.106699
 ---------------------------------------------------------------------

 The electronic state is 1-A.
 Alpha  occ. eigenvalues --  -19.23478 -14.51498 -14.49328 -14.49060 -10.35533
 Alpha  occ. eigenvalues --  -10.32658 -10.31996 -10.31606 -10.31130 -10.30215
 Alpha  occ. eigenvalues --  -10.29816 -10.28939 -10.28837 -10.27950 -10.27581
 Alpha  occ. eigenvalues --  -10.27464 -10.27334 -10.27170 -10.26989 -10.26942
 Alpha  occ. eigenvalues --  -10.26717 -10.26636 -10.26409 -10.26347 -10.26312
 Alpha  occ. eigenvalues --  -10.26179  -1.19014  -1.16720  -1.13347  -0.99960
 Alpha  occ. eigenvalues --   -0.97906  -0.96788  -0.94966  -0.90237  -0.88645
 Alpha  occ. eigenvalues --   -0.86225  -0.86066  -0.85318  -0.84558  -0.83263
 Alpha  occ. eigenvalues --   -0.80193  -0.77362  -0.74951  -0.73971  -0.72329
 Alpha  occ. eigenvalues --   -0.70458  -0.70118  -0.68992  -0.67375  -0.65375
 Alpha  occ. eigenvalues --   -0.64376  -0.62237  -0.61273  -0.59628  -0.58845
 Alpha  occ. eigenvalues --   -0.58212  -0.57217  -0.56350  -0.56007  -0.55197
 Alpha  occ. eigenvalues --   -0.54419  -0.54113  -0.54006  -0.53848  -0.52869
 Alpha  occ. eigenvalues --   -0.51766  -0.51165  -0.50724  -0.49603  -0.49534
 Alpha  occ. eigenvalues --   -0.49427  -0.48627  -0.46830  -0.46790  -0.45752
 Alpha  occ. eigenvalues --   -0.44977  -0.44579  -0.43989  -0.43735  -0.42741
 Alpha  occ. eigenvalues --   -0.41505  -0.40906  -0.39457  -0.37312  -0.34573
 Alpha  occ. eigenvalues --   -0.33695  -0.33288  -0.32630  -0.31294  -0.27228
 Alpha virt. eigenvalues --   -0.08385  -0.01560   0.01555   0.01849   0.02003
 Alpha virt. eigenvalues --    0.03573   0.05185   0.06415   0.07643   0.08807
 Alpha virt. eigenvalues --    0.09430   0.10231   0.10799   0.11117   0.12042

 Mulliken charges:
               1
     1  C   -0.033774
     2  C    0.193023
     3  C   -0.051927
     4  C   -0.109618
     5  C   -0.108609
     6  C   -0.049345
     7  C   -0.019847
     8  C    0.362261
     9  H    0.149511
    10  H    0.136462
    11  H    0.134246
    12  H    0.121180
    13  N   -0.465916
    14  C   -0.191042
    15  H    0.177550
    16  H    0.168384
    17  H    0.165721
    18  N   -0.116059
    19  N   -0.276561
    20  C    0.169388
    21  C   -0.076334
    22  C   -0.104108
    23  C   -0.115304
    24  H    0.150625
    25  C   -0.154784
    26  H    0.141969
    27  C    0.169739
    28  H    0.133011
    29  H    0.149475
    30  O   -0.342310
    31  C   -0.161268
    32  H    0.133033
    33  H    0.132932
    34  H    0.146748
    35  C   -0.125084
    36  C   -0.059978
    37  C   -0.027416
    38  C   -0.105664
    39  H    0.144731
    40  C   -0.114605
    41  H    0.134764
    42  C   -0.091389
    43  H    0.133767
    44  H    0.133150
    45  H    0.135202
    46  H    0.284068
 Sum of Mulliken charges =   1.00000

 Dipole moment (field-independent basis, Debye):
    X=              4.8754    Y=             -3.3243    Z=              0.3169  Tot=              5.9094
 Quadrupole moment (field-independent basis, Debye-Ang):
   XX=            -63.4750   YY=           -104.6827   ZZ=           -151.6568
   XY=             13.4263   XZ=             -4.1450   YZ=             -1.0025

 Normal termination of Gaussian 16 at Thu May 23 18:06:15 2024.
