 Gaussian 16, Revision C.01,
 Gaussian 16:  ES64L-G16RevC.01  3-Jul-2019

 ----------------------------------------------------------------------
 # opt cam-b3lyp/6-311g(d,p) scrf=(solvent=acetonitrile) empiricaldispe
 rsion=gd3bj
 ----------------------------------------------------------------------

 -
 -
 -
 Symbolic Z-matrix:
 Charge =  1 Multiplicity = 1

 SCF Done:  E(RCAM-B3LYP) =  -1015.60136204     A.U. after   15 cycles
 SCF Done:  E(RCAM-B3LYP) =  -1015.61476693     A.U. after   12 cycles
 SCF Done:  E(RCAM-B3LYP) =  -1015.61554828     A.U. after   12 cycles
 SCF Done:  E(RCAM-B3LYP) =  -1015.61841275     A.U. after   12 cycles
 SCF Done:  E(RCAM-B3LYP) =  -1015.61869379     A.U. after   11 cycles
 SCF Done:  E(RCAM-B3LYP) =  -1015.61904812     A.U. after   11 cycles
 SCF Done:  E(RCAM-B3LYP) =  -1015.61933311     A.U. after   11 cycles
 SCF Done:  E(RCAM-B3LYP) =  -1015.61935430     A.U. after   10 cycles
 SCF Done:  E(RCAM-B3LYP) =  -1015.61936502     A.U. after   10 cycles
 SCF Done:  E(RCAM-B3LYP) =  -1015.61937461     A.U. after    9 cycles
 SCF Done:  E(RCAM-B3LYP) =  -1015.61938664     A.U. after    9 cycles
 SCF Done:  E(RCAM-B3LYP) =  -1015.61939475     A.U. after    9 cycles
 SCF Done:  E(RCAM-B3LYP) =  -1015.61940006     A.U. after   10 cycles
 SCF Done:  E(RCAM-B3LYP) =  -1015.61940042     A.U. after    7 cycles
 SCF Done:  E(RCAM-B3LYP) =  -1015.61940061     A.U. after    7 cycles
 SCF Done:  E(RCAM-B3LYP) =  -1015.61940071     A.U. after    6 cycles
 SCF Done:  E(RCAM-B3LYP) =  -1015.61940075     A.U. after    6 cycles
 Optimization completed.
    -- Stationary point found.

                         Standard orientation:
 ---------------------------------------------------------------------
 Center     Atomic      Atomic             Coordinates (Angstroms)
 Number     Number       Type             X           Y           Z
 ---------------------------------------------------------------------
      1          6           0       -2.007361    1.345530   -0.021933
      2          6           0       -3.339173    0.929539    0.006021
      3          6           0       -4.408003    1.806834    0.009265
      4          6           0       -4.114227    3.161887   -0.017573
      5          6           0       -2.794785    3.606404   -0.051500
      6          6           0       -1.734448    2.712527   -0.055663
      7          6           0       -1.224702    0.116125   -0.019116
      8          1           0       -5.432357    1.462640    0.029426
      9          1           0       -4.922614    3.881287   -0.015459
     10          1           0       -2.589472    4.668598   -0.077327
     11          1           0       -0.733679    3.119048   -0.095131
     12          6           0       -4.684614   -1.132807    0.053761
     13          1           0       -5.232021   -0.776546    0.925268
     14          1           0       -5.232539   -0.873346   -0.851542
     15          1           0       -4.589777   -2.204417    0.115190
     16          6           0       -2.145630   -0.992764    0.000162
     17          6           0       -1.862983   -2.487364    0.002859
     18          7           0        0.076348   -0.086632   -0.014316
     19          7           0        0.898259    0.885418    0.007435
     20          6           0        2.295959    0.688754    0.009062
     21          6           0        3.113000    1.814590    0.079946
     22          6           0        2.851549   -0.579256   -0.059875
     23          6           0        4.482531    1.665375    0.083616
     24          1           0        2.677538    2.805606    0.132733
     25          6           0        4.228845   -0.729381   -0.055375
     26          1           0        2.211139   -1.447324   -0.117825
     27          6           0        5.053589    0.392705    0.016767
     28          1           0        5.136008    2.525776    0.138472
     29          1           0        4.645755   -1.724043   -0.110006
     30          8           0        6.402125    0.348533    0.026768
     31          6           0        7.039175   -0.920835   -0.038370
     32          1           0        6.787220   -1.440901   -0.965795
     33          1           0        8.106603   -0.719258   -0.015047
     34          1           0        6.767246   -1.542437    0.818245
     35          7           0       -3.378854   -0.479123    0.022006
     36          6           0       -0.368337   -2.834973   -0.054396
     37          1           0        0.108720   -2.451749   -0.954423
     38          1           0        0.174360   -2.462848    0.811802
     39          1           0       -0.290511   -3.923229   -0.064328
     40          6           0       -2.498480   -3.129456   -1.249471
     41          1           0       -2.285550   -4.199202   -1.235172
     42          1           0       -3.575827   -3.008846   -1.321636
     43          1           0       -2.052840   -2.709106   -2.152613
     44          6           0       -2.398462   -3.104973    1.312693
     45          1           0       -3.466670   -2.977568    1.467359
     46          1           0       -2.190603   -4.175809    1.301164
     47          1           0       -1.882077   -2.670006    2.169996
     48          1           0        0.574026    1.847002    0.041361
 ---------------------------------------------------------------------

 The electronic state is 1-A.
 Alpha  occ. eigenvalues --  -19.23433 -14.51318 -14.49203 -14.48762 -10.35611
 Alpha  occ. eigenvalues --  -10.32626 -10.31975 -10.31340 -10.31085 -10.30242
 Alpha  occ. eigenvalues --  -10.29805 -10.29793 -10.28612 -10.27966 -10.27519
 Alpha  occ. eigenvalues --  -10.27367 -10.27058 -10.26881 -10.26669 -10.26321
 Alpha  occ. eigenvalues --  -10.26143 -10.24773 -10.24740 -10.23903  -1.18875
 Alpha  occ. eigenvalues --   -1.16672  -1.13003  -0.99793  -0.97307  -0.95307
 Alpha  occ. eigenvalues --   -0.92873  -0.90080  -0.86304  -0.86095  -0.84895
 Alpha  occ. eigenvalues --   -0.84116  -0.79602  -0.78929  -0.78410  -0.77697
 Alpha  occ. eigenvalues --   -0.74365  -0.73601  -0.71164  -0.69887  -0.68658
 Alpha  occ. eigenvalues --   -0.66249  -0.64672  -0.64167  -0.61273  -0.59468
 Alpha  occ. eigenvalues --   -0.58685  -0.57756  -0.57034  -0.56960  -0.56087
 Alpha  occ. eigenvalues --   -0.55180  -0.54543  -0.53885  -0.53821  -0.53091
 Alpha  occ. eigenvalues --   -0.52369  -0.51983  -0.51502  -0.49463  -0.49324
 Alpha  occ. eigenvalues --   -0.49105  -0.48614  -0.47557  -0.47055  -0.46803
 Alpha  occ. eigenvalues --   -0.45241  -0.44762  -0.44700  -0.44475  -0.43810
 Alpha  occ. eigenvalues --   -0.43466  -0.41839  -0.41267  -0.41027  -0.40594
 Alpha  occ. eigenvalues --   -0.38189  -0.37113  -0.33735  -0.32558  -0.31956
 Alpha  occ. eigenvalues --   -0.27295
 Alpha virt. eigenvalues --   -0.08022  -0.00488   0.01614   0.03354   0.04954
 Alpha virt. eigenvalues --    0.06579   0.07448   0.08915   0.09597   0.10321
 Alpha virt. eigenvalues --    0.10601   0.11136   0.11761   0.12594   0.13024

 Mulliken charges:
               1
     1  C   -0.025234
     2  C    0.183924
     3  C   -0.051257
     4  C   -0.110691
     5  C   -0.106848
     6  C   -0.052540
     7  C    0.000556
     8  H    0.150032
     9  H    0.135661
    10  H    0.133570
    11  H    0.117837
    12  C   -0.198979
    13  H    0.175464
    14  H    0.178811
    15  H    0.162487
    16  C    0.412027
    17  C   -0.325035
    18  N   -0.141721
    19  N   -0.271269
    20  C    0.164876
    21  C   -0.114246
    22  C   -0.072590
    23  C   -0.113196
    24  H    0.142212
    25  C   -0.156195
    26  H    0.165511
    27  C    0.171202
    28  H    0.133049
    29  H    0.146058
    30  O   -0.343167
    31  C   -0.161144
    32  H    0.132936
    33  H    0.146772
    34  H    0.132879
    35  N   -0.462213
    36  C   -0.254173
    37  H    0.132199
    38  H    0.132917
    39  H    0.128721
    40  C   -0.246276
    41  H    0.135520
    42  H    0.124679
    43  H    0.134116
    44  C   -0.244138
    45  H    0.123809
    46  H    0.135679
    47  H    0.134157
    48  H    0.283248
 Sum of Mulliken charges =   1.00000

 Dipole moment (field-independent basis, Debye):
    X=             -6.1578    Y=             -1.0463    Z=              0.0242  Tot=              6.2461
 Quadrupole moment (field-independent basis, Debye-Ang):
   XX=            -64.4361   YY=           -105.9121   ZZ=           -145.6165
   XY=             -3.8817   XZ=             -0.9249   YZ=              0.3103

 Normal termination of Gaussian 16 at Thu May 23 19:42:15 2024.
