 Gaussian 16, Revision C.01,
 Gaussian 16:  ES64L-G16RevC.01  3-Jul-2019

 ----------------------------------------------------------------------
 # opt cam-b3lyp/6-311g(d,p) scrf=(solvent=acetonitrile) empiricaldispe
 rsion=gd3bj
 ----------------------------------------------------------------------

 -
 -
 -
 Symbolic Z-matrix:
 Charge =  1 Multiplicity = 1

 SCF Done:  E(RCAM-B3LYP) =  -858.386654231     A.U. after   15 cycles
 SCF Done:  E(RCAM-B3LYP) =  -858.406793745     A.U. after   12 cycles
 SCF Done:  E(RCAM-B3LYP) =  -858.412373252     A.U. after   12 cycles
 SCF Done:  E(RCAM-B3LYP) =  -858.413111103     A.U. after   11 cycles
 SCF Done:  E(RCAM-B3LYP) =  -858.413179304     A.U. after   10 cycles
 SCF Done:  E(RCAM-B3LYP) =  -858.413188273     A.U. after    9 cycles
 Optimization completed.
    -- Stationary point found.

                         Standard orientation:
 ---------------------------------------------------------------------
 Center     Atomic      Atomic             Coordinates (Angstroms)
 Number     Number       Type             X           Y           Z
 ---------------------------------------------------------------------
      1          6           0       -2.490774    0.471706   -0.000069
      2          6           0       -3.788124   -0.066267   -0.000069
      3          6           0       -4.930632    0.711586   -0.000086
      4          6           0       -4.756224    2.086869   -0.000095
      5          6           0       -3.479659    2.648755   -0.000091
      6          6           0       -2.341518    1.856684   -0.000080
      7          6           0       -1.598928   -0.682544   -0.000064
      8          6           0       -2.425301   -1.828338   -0.000063
      9          1           0       -5.918284    0.270683   -0.000099
     10          1           0       -5.624288    2.732939   -0.000108
     11          1           0       -3.373187    3.725680   -0.000100
     12          1           0       -1.375043    2.341726   -0.000087
     13          1           0       -2.112442   -2.861146   -0.000059
     14          7           0       -3.693510   -1.471263   -0.000063
     15          6           0       -4.841049   -2.367602   -0.000089
     16          1           0       -5.442307   -2.190569   -0.890689
     17          1           0       -4.483074   -3.393042    0.000141
     18          1           0       -5.442564   -2.190273    0.890276
     19          7           0       -0.287526   -0.853356   -0.000039
     20          7           0        0.504642    0.139646   -0.000005
     21          6           0        1.907436   -0.012753    0.000012
     22          6           0        2.498776   -1.275062   -0.000253
     23          6           0        2.687384    1.132132    0.000294
     24          6           0        3.870512   -1.373537   -0.000220
     25          1           0        1.880454   -2.161257   -0.000481
     26          6           0        4.070345    1.032549    0.000322
     27          1           0        2.222036    2.110762    0.000497
     28          6           0        4.669811   -0.224348    0.000068
     29          1           0        4.357527   -2.339727   -0.000424
     30          1           0        4.661816    1.935816    0.000544
     31          8           0        6.000603   -0.435756    0.000070
     32          6           0        6.867303    0.691908    0.000380
     33          1           0        6.717736    1.302633   -0.893141
     34          1           0        6.717627    1.302222    0.894164
     35          1           0        7.876853    0.290434    0.000349
     36          1           0        0.150929    1.093556    0.000024
 ---------------------------------------------------------------------

 The electronic state is 1-A.
 Alpha  occ. eigenvalues --  -19.23620 -14.52081 -14.49640 -14.49575 -10.34406
 Alpha  occ. eigenvalues --  -10.32859 -10.32033 -10.31646 -10.31306 -10.30440
 Alpha  occ. eigenvalues --  -10.29877 -10.28981 -10.27976 -10.27673 -10.27670
 Alpha  occ. eigenvalues --  -10.27193 -10.26983 -10.26795 -10.26434 -10.26312
 Alpha  occ. eigenvalues --   -1.19481  -1.16879  -1.13523  -1.00053  -0.97264
 Alpha  occ. eigenvalues --   -0.95140  -0.90321  -0.86792  -0.86219  -0.85461
 Alpha  occ. eigenvalues --   -0.84156  -0.80480  -0.77566  -0.74862  -0.73669
 Alpha  occ. eigenvalues --   -0.71954  -0.69571  -0.68250  -0.65698  -0.64526
 Alpha  occ. eigenvalues --   -0.61463  -0.60026  -0.59635  -0.58724  -0.57489
 Alpha  occ. eigenvalues --   -0.56488  -0.56319  -0.55309  -0.54147  -0.53944
 Alpha  occ. eigenvalues --   -0.53737  -0.51921  -0.51157  -0.49716  -0.49630
 Alpha  occ. eigenvalues --   -0.49444  -0.48751  -0.46957  -0.46079  -0.44999
 Alpha  occ. eigenvalues --   -0.44643  -0.44064  -0.41658  -0.41031  -0.39900
 Alpha  occ. eigenvalues --   -0.37415  -0.33845  -0.32716  -0.32403  -0.27503
 Alpha virt. eigenvalues --   -0.08382  -0.00457   0.01479   0.03289   0.04870
 Alpha virt. eigenvalues --    0.06289   0.08100   0.08983   0.10079   0.10433
 Alpha virt. eigenvalues --    0.10573   0.11278   0.12665   0.13005   0.14566

 Mulliken charges:
               1
     1  C   -0.063326
     2  C    0.195559
     3  C   -0.033947
     4  C   -0.111966
     5  C   -0.106010
     6  C   -0.054385
     7  C   -0.032253
     8  C    0.261786
     9  H    0.149821
    10  H    0.137281
    11  H    0.134860
    12  H    0.122442
    13  H    0.187722
    14  N   -0.418354
    15  C   -0.166729
    16  H    0.169997
    17  H    0.158067
    18  H    0.169986
    19  N   -0.109603
    20  N   -0.267280
    21  C    0.174906
    22  C   -0.073966
    23  C   -0.103069
    24  C   -0.112336
    25  H    0.143579
    26  C   -0.153907
    27  H    0.143354
    28  C    0.170856
    29  H    0.135150
    30  H    0.150694
    31  O   -0.340702
    32  C   -0.161484
    33  H    0.133855
    34  H    0.133855
    35  H    0.147440
    36  H    0.288107
 Sum of Mulliken charges =   1.00000

 Dipole moment (field-independent basis, Debye):
    X=             -7.0769    Y=             -0.3049    Z=              0.0003  Tot=              7.0835
 Quadrupole moment (field-independent basis, Debye-Ang):
   XX=            -27.4532   YY=            -83.5465   ZZ=           -120.4430
   XY=             26.1259   XZ=              0.0048   YZ=              0.0028

 Normal termination of Gaussian 16 at Thu May 23 16:35:21 2024.
