 Gaussian 16, Revision C.01,
 Gaussian 16:  ES64L-G16RevC.01  3-Jul-2019

 ----------------------------------------------------------------------
 # freq cam-b3lyp/6-311++g(d,p) scrf=(solvent=acetonitrile) empiricaldi
 spersion=gd3bj
 ----------------------------------------------------------------------

 -
 -
 -
 Symbolic Z-matrix:
 Charge =  1 Multiplicity = 1

                         Standard orientation:
 ---------------------------------------------------------------------
 Center     Atomic      Atomic             Coordinates (Angstroms)
 Number     Number       Type             X           Y           Z
 ---------------------------------------------------------------------
      1          6           0       -2.372067   -0.714417   -0.000005
      2          6           0       -3.678033   -0.207469    0.000001
      3          6           0       -4.800409   -1.011021    0.000001
      4          6           0       -4.593984   -2.385176   -0.000005
      5          6           0       -3.306603   -2.916461   -0.000011
      6          6           0       -2.187298   -2.093615   -0.000011
      7          6           0       -1.509074    0.459478   -0.000004
      8          6           0       -2.360605    1.612171    0.000002
      9          1           0       -5.800072   -0.598174    0.000005
     10          1           0       -5.447922   -3.050062   -0.000005
     11          1           0       -3.172959   -3.990487   -0.000017
     12          1           0       -1.208875   -2.553756   -0.000018
     13          7           0       -3.620705    1.205354    0.000005
     14          6           0       -4.830868    2.016096    0.000016
     15          1           0       -5.415208    1.789084    0.890611
     16          1           0       -4.575300    3.068785    0.000020
     17          1           0       -5.415219    1.789093   -0.890575
     18          7           0       -0.210312    0.649815   -0.000004
     19          7           0        0.611128   -0.328223   -0.000000
     20          6           0        2.009248   -0.131296   -0.000002
     21          6           0        2.560649    1.148540   -0.000029
     22          6           0        2.828286   -1.248406    0.000023
     23          6           0        3.930266    1.293378   -0.000030
     24          1           0        1.915940    2.016032   -0.000049
     25          6           0        4.208889   -1.102804    0.000022
     26          1           0        2.398075   -2.243252    0.000044
     27          6           0        4.765971    0.172338   -0.000004
     28          1           0        4.380607    2.277582   -0.000050
     29          1           0        4.829330   -1.986661    0.000042
     30          8           0        6.094532    0.425110   -0.000007
     31          6           0        6.994003   -0.676616    0.000018
     32          1           0        6.861054   -1.290679    0.893686
     33          1           0        6.861058   -1.290717   -0.893623
     34          1           0        7.992079   -0.247001    0.000011
     35          1           0        0.281907   -1.289602    0.000008
     36          6           0       -1.897798    3.017303    0.000007
     37          1           0       -1.275296    3.193117    0.878253
     38          1           0       -1.275155    3.193077   -0.878146
     39          1           0       -2.714498    3.731985   -0.000073
 ---------------------------------------------------------------------

 SCF Done:  E(RCAM-B3LYP) =  -897.734652054     A.U. after   16 cycles

 The electronic state is 1-A.
 Alpha  occ. eigenvalues --  -19.24100 -14.51286 -14.49600 -14.49140 -10.35886
 Alpha  occ. eigenvalues --  -10.32811 -10.31833 -10.31723 -10.31304 -10.30433
 Alpha  occ. eigenvalues --  -10.29960 -10.28978 -10.28129 -10.27823 -10.27595
 Alpha  occ. eigenvalues --  -10.27240 -10.27155 -10.27141 -10.26930 -10.26566
 Alpha  occ. eigenvalues --  -10.26418  -1.18749  -1.16925  -1.13459  -0.99964
 Alpha  occ. eigenvalues --   -0.97410  -0.95307  -0.90365  -0.88610  -0.86208
 Alpha  occ. eigenvalues --   -0.86152  -0.84550  -0.81905  -0.79965  -0.77115
 Alpha  occ. eigenvalues --   -0.74251  -0.72531  -0.71582  -0.69210  -0.67669
 Alpha  occ. eigenvalues --   -0.65372  -0.64458  -0.61547  -0.59894  -0.59196
 Alpha  occ. eigenvalues --   -0.58747  -0.57289  -0.56081  -0.56030  -0.55326
 Alpha  occ. eigenvalues --   -0.54187  -0.53971  -0.53644  -0.51852  -0.51505
 Alpha  occ. eigenvalues --   -0.50705  -0.50097  -0.49630  -0.49094  -0.48808
 Alpha  occ. eigenvalues --   -0.47645  -0.46897  -0.45854  -0.45025  -0.44692
 Alpha  occ. eigenvalues --   -0.43187  -0.41658  -0.41159  -0.39606  -0.37318
 Alpha  occ. eigenvalues --   -0.33767  -0.32845  -0.32154  -0.27391
 Alpha virt. eigenvalues --   -0.08160  -0.00693   0.00847   0.00899   0.01615
 Alpha virt. eigenvalues --    0.01870   0.02630   0.02706   0.03082   0.04054
 Alpha virt. eigenvalues --    0.04117   0.04331   0.04421   0.04601   0.05371

 Mulliken charges:
               1
     1  C    0.595950
     2  C    0.208234
     3  C   -0.264314
     4  C   -0.301328
     5  C   -0.511363
     6  C   -0.393152
     7  C   -0.537554
     8  C    0.167183
     9  H    0.218159
    10  H    0.219737
    11  H    0.219763
    12  H    0.134453
    13  N    0.170114
    14  C   -0.321581
    15  H    0.217080
    16  H    0.143857
    17  H    0.217079
    18  N    0.594325
    19  N   -0.173881
    20  C   -0.047845
    21  C   -0.028649
    22  C   -0.013960
    23  C   -0.238206
    24  H    0.220402
    25  C   -0.122097
    26  H    0.199990
    27  C   -0.576441
    28  H    0.242463
    29  H    0.256001
    30  O   -0.194551
    31  C   -0.340173
    32  H    0.165971
    33  H    0.165971
    34  H    0.199798
    35  H    0.429869
    36  C   -0.522700
    37  H    0.225008
    38  H    0.224990
    39  H    0.151394
 Sum of Mulliken charges =   1.00000

 Dipole moment (field-independent basis, Debye):
    X=             -7.6066    Y=              0.5417    Z=              0.0001  Tot=              7.6259
 Quadrupole moment (field-independent basis, Debye-Ang):
   XX=            -39.4613   YY=            -88.1771   ZZ=           -127.2372
   XY=            -26.0249   XZ=              0.0001   YZ=             -0.0001

  Exact polarizability:     625.927      -5.979     325.798      -0.000      -0.000     160.300
 Approx polarizability:     446.453      -7.890     297.485      -0.000      -0.001     159.009

 ******    1 imaginary frequencies (negative Signs) ******

                      1                      2                      3
                      A                      A                      A
 Frequencies --   -139.2415                15.1348                31.2296
 Red. masses --      1.0280                 3.4368                 4.6967
 Frc consts  --      0.0117                 0.0005                 0.0027
 IR Inten    --      2.2494                 3.0429                 0.0024

                      4                      5                      6
                      A                      A                      A
 Frequencies --     45.8900                62.1182                96.6255
 Red. masses --      4.8316                 3.6357                 1.4138
 Frc consts  --      0.0060                 0.0083                 0.0078
 IR Inten    --      0.3080                 0.1027                 0.6740

                      7                      8                      9
                      A                      A                      A
 Frequencies --     99.1426               126.9650               141.3345
 Red. masses --      1.9891                 2.9270                 3.5732
 Frc consts  --      0.0115                 0.0278                 0.0421
 IR Inten    --      6.1749                 0.1102                 7.8567

                     10                     11                     12
                      A                      A                      A
 Frequencies --    148.4794               189.9824               195.4314
 Red. masses --      6.2081                 3.0379                 3.7693
 Frc consts  --      0.0806                 0.0646                 0.0848
 IR Inten    --      2.7948                 0.7629                 2.1559

                     13                     14                     15
                      A                      A                      A
 Frequencies --    248.0970               254.4713               269.1312
 Red. masses --      2.1108                 1.6634                 3.2141
 Frc consts  --      0.0766                 0.0635                 0.1372
 IR Inten    --      5.5348                 5.4834                15.2271

                     16                     17                     18
                      A                      A                      A
 Frequencies --    298.3854               344.4738               352.8550
 Red. masses --      4.3637                 4.2599                 2.8262
 Frc consts  --      0.2289                 0.2978                 0.2073
 IR Inten    --     13.0907                 0.4406                 1.3939

                     19                     20                     21
                      A                      A                      A
 Frequencies --    370.9073               414.7600               433.0097
 Red. masses --      3.2370                 4.5600                 3.1645
 Frc consts  --      0.2624                 0.4622                 0.3496
 IR Inten    --     16.9727                 0.0195                 0.2817

                     22                     23                     24
                      A                      A                      A
 Frequencies --    440.3569               458.2514               465.3762
 Red. masses --      5.3635                 5.0448                 3.1859
 Frc consts  --      0.6128                 0.6242                 0.4065
 IR Inten    --      2.1229                64.9064                33.0315

                     25                     26                     27
                      A                      A                      A
 Frequencies --    504.9158               538.1348               553.2437
 Red. masses --      5.1929                 2.3487                 5.1917
 Frc consts  --      0.7800                 0.4007                 0.9362
 IR Inten    --      0.3665                32.5797               168.5507

                     28                     29                     30
                      A                      A                      A
 Frequencies --    567.4642               595.7503               635.6922
 Red. masses --      4.9982                 3.2001                 5.5597
 Frc consts  --      0.9483                 0.6692                 1.3237
 IR Inten    --     16.3735                 3.9407                11.5631

                     31                     32                     33
                      A                      A                      A
 Frequencies --    660.2400               670.1925               677.2937
 Red. masses --      5.2702                 5.5064                 2.6340
 Frc consts  --      1.3536                 1.4572                 0.7119
 IR Inten    --     11.1839                 3.1103                32.0172

                     34                     35                     36
                      A                      A                      A
 Frequencies --    719.6993               734.9363               737.1951
 Red. masses --      1.9087                 5.2529                 3.5187
 Frc consts  --      0.5825                 1.6717                 1.1267
 IR Inten    --      1.0269                 9.7740                 0.4693

                     37                     38                     39
                      A                      A                      A
 Frequencies --    776.3442               790.2806               800.7655
 Red. masses --      1.8123                 2.5691                 4.1451
 Frc consts  --      0.6436                 0.9454                 1.5660
 IR Inten    --     97.9617                49.4023                 0.8755

                     40                     41                     42
                      A                      A                      A
 Frequencies --    832.2711               836.1064               864.2604
 Red. masses --      1.2642                 4.9804                 1.7431
 Frc consts  --      0.5159                 2.0513                 0.7671
 IR Inten    --     12.7544                 0.7862               122.6568

                     43                     44                     45
                      A                      A                      A
 Frequencies --    885.0237               886.2971               932.0899
 Red. masses --      4.9038                 1.5068                 2.7286
 Frc consts  --      2.2630                 0.6974                 1.3967
 IR Inten    --     33.3843                 0.0281               313.5275

                     46                     47                     48
                      A                      A                      A
 Frequencies --    967.4851               976.2238               998.8807
 Red. masses --      1.3609                 1.3898                 1.3303
 Frc consts  --      0.7505                 0.7804                 0.7821
 IR Inten    --      0.6664                 3.6190                 0.0111

                     49                     50                     51
                      A                      A                      A
 Frequencies --   1027.4828              1033.7434              1048.4150
 Red. masses --      1.3299                 2.5943                 2.4913
 Frc consts  --      0.8272                 1.6334                 1.6134
 IR Inten    --      0.0341                 4.5943               278.7868

                     52                     53                     54
                      A                      A                      A
 Frequencies --   1056.4818              1073.1323              1076.5609
 Red. masses --      1.6030                 3.3035                 2.8261
 Frc consts  --      1.0542                 2.2415                 1.9298
 IR Inten    --     10.2057               158.7288                 5.7111

                     55                     56                     57
                      A                      A                      A
 Frequencies --   1097.3318              1143.6295              1153.1622
 Red. masses --      4.4820                 1.2657                 1.3454
 Frc consts  --      3.1798                 0.9753                 1.0541
 IR Inten    --    199.5794               124.3776                 0.0482

                     58                     59                     60
                      A                      A                      A
 Frequencies --   1166.6358              1173.2880              1178.7082
 Red. masses --      1.6300                 1.7816                 1.2783
 Frc consts  --      1.3071                 1.4450                 1.0464
 IR Inten    --    212.4831                81.1665                 1.0346

                     61                     62                     63
                      A                      A                      A
 Frequencies --   1194.1575              1199.8313              1211.7483
 Red. masses --      1.2217                 1.1679                 1.5708
 Frc consts  --      1.0265                 0.9906                 1.3590
 IR Inten    --     80.0343               161.2712                70.0924

                     64                     65                     66
                      A                      A                      A
 Frequencies --   1216.3806              1259.0488              1271.7508
 Red. masses --      2.8508                 2.8013                 2.6952
 Frc consts  --      2.4852                 2.6164                 2.5683
 IR Inten    --      1.9072               994.0821              1761.8934

                     67                     68                     69
                      A                      A                      A
 Frequencies --   1298.5125              1342.1227              1350.1032
 Red. masses --      5.2984                 1.4761                 3.8992
 Frc consts  --      5.2636                 1.5666                 4.1875
 IR Inten    --    244.9171               120.2240                49.6047

                     70                     71                     72
                      A                      A                      A
 Frequencies --   1353.1399              1362.9684              1411.0514
 Red. masses --      1.7719                 4.6290                 2.3411
 Frc consts  --      1.9115                 5.0666                 2.7463
 IR Inten    --     26.9528               350.9648               588.9293

                     73                     74                     75
                      A                      A                      A
 Frequencies --   1415.1486              1445.5161              1463.7396
 Red. masses --      1.4655                 1.4203                 1.0397
 Frc consts  --      1.7292                 1.7485                 1.3125
 IR Inten    --    179.3403               158.0125                14.6967

                     76                     77                     78
                      A                      A                      A
 Frequencies --   1471.1002              1482.3281              1483.8634
 Red. masses --      2.5691                 1.3135                 1.1353
 Frc consts  --      3.2758                 1.7005                 1.4728
 IR Inten    --      4.2633               262.2313                 3.8673

                     79                     80                     81
                      A                      A                      A
 Frequencies --   1484.9367              1490.9648              1493.4089
 Red. masses --      1.0348                 1.8566                 1.0421
 Frc consts  --      1.3444                 2.4316                 1.3693
 IR Inten    --     26.1434               452.3574                17.0311

                     82                     83                     84
                      A                      A                      A
 Frequencies --   1505.0160              1506.8759              1512.2509
 Red. masses --      1.1409                 1.2022                 2.2792
 Frc consts  --      1.5226                 1.6084                 3.0710
 IR Inten    --     34.4738                47.9031               120.4394

                     85                     86                     87
                      A                      A                      A
 Frequencies --   1528.1423              1548.5251              1568.4194
 Red. masses --      3.0657                 3.3368                 3.4185
 Frc consts  --      4.2180                 4.7143                 4.9546
 IR Inten    --    602.8450               943.4647                46.1377

                     88                     89                     90
                      A                      A                      A
 Frequencies --   1611.9384              1648.6903              1669.3383
 Red. masses --      3.0847                 5.7483                 6.3033
 Frc consts  --      4.7224                 9.2059                10.3491
 IR Inten    --    621.0743               179.8529               161.2992

                     91                     92                     93
                      A                      A                      A
 Frequencies --   1673.9569              1688.4571              1692.8882
 Red. masses --      4.9391                 5.3116                 7.3486
 Frc consts  --      8.1543                 8.9219                12.4082
 IR Inten    --    241.3091                 8.4638                 3.5200

                     94                     95                     96
                      A                      A                      A
 Frequencies --   3047.5676              3085.1153              3090.4873
 Red. masses --      1.0334                 1.0391                 1.0373
 Frc consts  --      5.6549                 5.8270                 5.8373
 IR Inten    --     83.2445                 0.8733                24.1219

                     97                     98                     99
                      A                      A                      A
 Frequencies --   3116.9295              3142.7360              3160.6105
 Red. masses --      1.1076                 1.1003                 1.1071
 Frc consts  --      6.3398                 6.4031                 6.5162
 IR Inten    --     37.7607                 0.0151                 3.9182

                    100                    101                    102
                      A                      A                      A
 Frequencies --   3175.3038              3193.9289              3198.8748
 Red. masses --      1.1023                 1.1014                 1.0918
 Frc consts  --      6.5484                 6.6200                 6.5826
 IR Inten    --     21.4970                 8.0952                 4.7445

                    103                    104                    105
                      A                      A                      A
 Frequencies --   3206.4398              3216.0751              3216.7654
 Red. masses --      1.0880                 1.0908                 1.0913
 Frc consts  --      6.5904                 6.6475                 6.6532
 IR Inten    --      0.4514                 6.7914                11.1520

                    106                    107                    108
                      A                      A                      A
 Frequencies --   3222.9827              3226.3876              3232.4716
 Red. masses --      1.0996                 1.0952                 1.0973
 Frc consts  --      6.7296                 6.7173                 6.7554
 IR Inten    --      7.5240                 7.0898                 2.9089

                    109                    110                    111
                      A                      A                      A
 Frequencies --   3237.5119              3242.2128              3546.9216
 Red. masses --      1.0947                 1.0930                 1.0759
 Frc consts  --      6.7603                 6.7697                 7.9751
 IR Inten    --      0.8414                 7.1491               141.7946

 - Thermochemistry -
 -------------------
 Temperature   298.150 Kelvin.  Pressure   1.00000 Atm.
 Atom     1 has atomic number  6 and mass  12.00000

 Molecular mass:   280.14499 amu.
 Principal axes and moments of inertia in atomic units:
                           1         2         3
     Eigenvalues --  2321.91348********************
           X            0.99994  -0.01092  -0.00000
           Y            0.01092   0.99994   0.00000
           Z            0.00000  -0.00000   1.00000
 This molecule is an asymmetric top.
 Rotational symmetry number  1.
 Warning -- assumption of classical behavior for rotation
           may cause significant error
 Rotational temperatures (Kelvin)      0.03730     0.00604     0.00521
 Rotational constants (GHZ):           0.77726     0.12593     0.10860
    1 imaginary frequencies ignored.
 Zero-point vibrational energy     851067.7 (Joules/Mol)
                                  203.41006 (Kcal/Mol)
 Warning -- explicit consideration of  28 degrees of freedom as
           vibrations may cause significant error
 Vibrational temperatures:     21.78    44.93    66.03    89.37   139.02
          (Kelvin)            142.64   182.67   203.35   213.63   273.34
                              281.18   356.96   366.13   387.22   429.31
                              495.62   507.68   533.65   596.75   623.00
                              633.58   659.32   669.57   726.46   774.26
                              795.99   816.45   857.15   914.62   949.94
                              964.26   974.47  1035.49  1057.41  1060.66
                             1116.99  1137.04  1152.12  1197.45  1202.97
                             1243.48  1273.35  1275.18  1341.07  1392.00
                             1404.57  1437.17  1478.32  1487.33  1508.44
                             1520.04  1544.00  1548.93  1578.82  1645.43
                             1659.14  1678.53  1688.10  1695.90  1718.13
                             1726.29  1743.44  1750.10  1811.49  1829.77
                             1868.27  1931.02  1942.50  1946.87  1961.01
                             2030.19  2036.08  2079.78  2105.99  2116.59
                             2132.74  2134.95  2136.49  2145.17  2148.68
                             2165.38  2168.06  2175.79  2198.66  2227.98
                             2256.61  2319.22  2372.10  2401.81  2408.45
                             2429.31  2435.69  4384.77  4438.79  4446.52
                             4484.57  4521.70  4547.41  4568.55  4595.35
                             4602.47  4613.35  4627.21  4628.21  4637.15
                             4642.05  4650.81  4658.06  4664.82  5103.23

 Zero-point correction=                           0.324155 (Hartree/Particle)
 Thermal correction to Energy=                    0.342340
 Thermal correction to Enthalpy=                  0.343284
 Thermal correction to Gibbs Free Energy=         0.275899
 Sum of electronic and zero-point Energies=           -897.410497
 Sum of electronic and thermal Energies=              -897.392312
 Sum of electronic and thermal Enthalpies=            -897.391368
 Sum of electronic and thermal Free Energies=         -897.458753

                     E (Thermal)             CV                S
                      KCal/Mol        Cal/Mol-Kelvin    Cal/Mol-Kelvin
 Total                  214.822             70.468            141.825
 Electronic               0.000              0.000              0.000
 Translational            0.889              2.981             42.789
 Rotational               0.889              2.981             34.669
 Vibrational            213.044             64.506             64.368
 Vibration     1          0.593              1.986              7.188
 Vibration     2          0.594              1.983              5.750
 Vibration     3          0.595              1.979              4.987
 Vibration     4          0.597              1.972              4.389
 Vibration     5          0.603              1.952              3.521
 Vibration     6          0.604              1.950              3.471
 Vibration     7          0.611              1.926              2.992
 Vibration     8          0.615              1.912              2.786
 Vibration     9          0.618              1.904              2.692
 Vibration    10          0.633              1.854              2.228
 Vibration    11          0.636              1.846              2.176
 Vibration    12          0.662              1.766              1.744
 Vibration    13          0.665              1.755              1.699
 Vibration    14          0.674              1.730              1.602
 Vibration    15          0.691              1.677              1.426
 Vibration    16          0.723              1.587              1.191
 Vibration    17          0.729              1.569              1.153
 Vibration    18          0.743              1.532              1.076
 Vibration    19          0.778              1.438              0.910
 Vibration    20          0.794              1.398              0.849
 Vibration    21          0.800              1.382              0.825
 Vibration    22          0.816              1.343              0.771
 Vibration    23          0.823              1.327              0.751
 Vibration    24          0.860              1.239              0.646
 Vibration    25          0.893              1.166              0.569
 Vibration    26          0.909              1.133              0.537
 Vibration    27          0.923              1.102              0.509
 Vibration    28          0.954              1.041              0.457

 Normal termination of Gaussian 16 at Mon Jul 15 13:21:00 2024.
