 Gaussian 16, Revision C.01,
 Gaussian 16:  ES64L-G16RevC.01  3-Jul-2019

 ----------------------------------------------------------------------
 # CAM-B3LYP/6-311G(d,p) freq scrf=(solvent=acetonitrile) empiricaldisp
 ersion=gd3bj
 ----------------------------------------------------------------------

 -
 -
 -
 Symbolic Z-matrix:
 Charge =  0 Multiplicity = 1

                         Standard orientation:
 ---------------------------------------------------------------------
 Center     Atomic      Atomic             Coordinates (Angstroms)
 Number     Number       Type             X           Y           Z
 ---------------------------------------------------------------------
      1          6           0       -0.973521    1.081275    0.013632
      2          6           0       -2.212363    1.738605    0.013925
      3          6           0       -2.323819    3.125505    0.020695
      4          6           0       -1.151305    3.859102    0.034755
      5          6           0        0.095430    3.223492    0.038456
      6          6           0        0.199483    1.843956    0.027232
      7          6           0       -1.288143   -0.326665   -0.011540
      8          1           0       -3.285867    3.619881    0.009738
      9          1           0       -1.200740    4.940934    0.039988
     10          1           0        0.997053    3.823740    0.047893
     11          1           0        1.174192    1.379588    0.025424
     12          6           0       -4.611661    1.222490   -0.019726
     13          1           0       -4.751454    1.984154    0.746696
     14          1           0       -4.863985    1.646912   -0.993086
     15          1           0       -5.285965    0.407144    0.193279
     16          6           0       -2.678080   -0.473799   -0.030254
     17          6           0       -3.540381   -1.728594   -0.069883
     18          7           0       -0.410085   -1.408666   -0.009633
     19          7           0        0.792336   -1.175084    0.034832
     20          6           0        2.093418   -0.923964    0.092139
     21          6           0        2.762644   -0.850233    1.338013
     22          6           0        2.853051   -0.709866   -1.074458
     23          6           0        4.115499   -0.588872    1.387421
     24          1           0        2.199479   -0.999048    2.249859
     25          6           0        4.217027   -0.453848   -0.997657
     26          1           0        2.363600   -0.748869   -2.038563
     27          6           0        4.863356   -0.390747    0.228800
     28          1           0        4.620568   -0.533135    2.344536
     29          1           0        4.758642   -0.300556   -1.921150
     30          8           0        6.201807   -0.141038    0.402686
     31          6           0        6.978841    0.077580   -0.756939
     32          1           0        6.628277    0.950401   -1.317422
     33          1           0        7.995357    0.258078   -0.414177
     34          1           0        6.972131   -0.796301   -1.416564
     35          7           0       -3.222819    0.786624   -0.001691
     36          6           0       -2.718873   -3.020927   -0.183431
     37          1           0       -2.105074   -3.036602   -1.082488
     38          1           0       -2.062230   -3.166777    0.670862
     39          1           0       -3.421360   -3.856118   -0.229247
     40          6           0       -4.457293   -1.698501   -1.310013
     41          1           0       -5.046570   -2.617031   -1.337096
     42          1           0       -5.151619   -0.862845   -1.333520
     43          1           0       -3.854569   -1.658909   -2.219592
     44          6           0       -4.350210   -1.845793    1.237506
     45          1           0       -5.011693   -1.004047    1.430251
     46          1           0       -4.964797   -2.747369    1.197817
     47          1           0       -3.672433   -1.936204    2.088470
 ---------------------------------------------------------------------

 SCF Done:  E(RCAM-B3LYP) =  -1015.10265742     A.U. after   18 cycles

 The electronic state is 1-A.
 Alpha  occ. eigenvalues --  -19.20977 -14.46630 -14.44983 -14.42309 -10.31115
 Alpha  occ. eigenvalues --  -10.30990 -10.28827 -10.28659 -10.28520 -10.28510
 Alpha  occ. eigenvalues --  -10.27924 -10.27054 -10.25434 -10.25346 -10.24938
 Alpha  occ. eigenvalues --  -10.24854 -10.24428 -10.24346 -10.24263 -10.24154
 Alpha  occ. eigenvalues --  -10.23871 -10.23654 -10.23548 -10.22622  -1.13913
 Alpha  occ. eigenvalues --   -1.13452  -1.09189  -0.96460  -0.94577  -0.92298
 Alpha  occ. eigenvalues --   -0.90261  -0.88032  -0.83685  -0.83290  -0.81797
 Alpha  occ. eigenvalues --   -0.80687  -0.78212  -0.77737  -0.76658  -0.73574
 Alpha  occ. eigenvalues --   -0.71462  -0.69928  -0.69100  -0.66833  -0.64122
 Alpha  occ. eigenvalues --   -0.63247  -0.61953  -0.59529  -0.57564  -0.56792
 Alpha  occ. eigenvalues --   -0.55569  -0.55447  -0.55164  -0.53544  -0.52682
 Alpha  occ. eigenvalues --   -0.52189  -0.51802  -0.51527  -0.51291  -0.50312
 Alpha  occ. eigenvalues --   -0.50158  -0.49107  -0.47812  -0.47732  -0.47354
 Alpha  occ. eigenvalues --   -0.46924  -0.46335  -0.45770  -0.45543  -0.44157
 Alpha  occ. eigenvalues --   -0.43265  -0.43220  -0.42292  -0.41853  -0.41591
 Alpha  occ. eigenvalues --   -0.41195  -0.39506  -0.39363  -0.38926  -0.37922
 Alpha  occ. eigenvalues --   -0.34098  -0.31703  -0.31252  -0.29087  -0.26903
 Alpha  occ. eigenvalues --   -0.20905
 Alpha virt. eigenvalues --   -0.02190   0.01904   0.03587   0.05667   0.07422
 Alpha virt. eigenvalues --    0.07957   0.09291   0.09948   0.10701   0.11255
 Alpha virt. eigenvalues --    0.12122   0.12399   0.12862   0.13258   0.14144

 Mulliken charges:
               1
     1  C   -0.032177
     2  C    0.192902
     3  C   -0.085573
     4  C   -0.126956
     5  C   -0.138662
     6  C   -0.059571
     7  C   -0.100576
     8  H    0.132115
     9  H    0.119021
    10  H    0.115701
    11  H    0.132746
    12  C   -0.190870
    13  H    0.151596
    14  H    0.159857
    15  H    0.149404
    16  C    0.361124
    17  C   -0.308664
    18  N   -0.151131
    19  N   -0.260207
    20  C    0.180875
    21  C   -0.139655
    22  C   -0.152242
    23  C   -0.104039
    24  H    0.114240
    25  C   -0.140684
    26  H    0.112683
    27  C    0.110878
    28  H    0.115038
    29  H    0.131828
    30  O   -0.370080
    31  C   -0.154694
    32  H    0.117350
    33  H    0.134916
    34  H    0.117387
    35  N   -0.480721
    36  C   -0.240749
    37  H    0.117835
    38  H    0.119991
    39  H    0.113868
    40  C   -0.249784
    41  H    0.124058
    42  H    0.117623
    43  H    0.124102
    44  C   -0.243155
    45  H    0.114252
    46  H    0.124732
    47  H    0.124062
 Sum of Mulliken charges =  -0.00000

 Dipole moment (field-independent basis, Debye):
    X=             -7.8027    Y=              2.0990    Z=             -1.5778  Tot=              8.2327
 Quadrupole moment (field-independent basis, Debye-Ang):
   XX=           -110.4107   YY=           -141.1193   ZZ=           -141.3728
   XY=              1.4801   XZ=            -10.6524   YZ=             -0.4317

  Exact polarizability:     533.233       5.221     323.361       0.735      -2.837     238.262
 Approx polarizability:     411.838      12.211     289.582       3.140      -1.922     233.539

 ******    1 imaginary frequencies (negative Signs) ******

                      1                      2                      3
                      A                      A                      A
 Frequencies --   -443.8807                11.7399                24.1795
 Red. masses --     13.5631                 4.4139                 3.4542
 Frc consts  --      1.5745                 0.0004                 0.0012
 IR Inten    --     35.7212                 1.7565                 1.2159

                      4                      5                      6
                      A                      A                      A
 Frequencies --     38.3240                39.5704                63.0431
 Red. masses --      2.7502                 4.3176                 2.6893
 Frc consts  --      0.0024                 0.0040                 0.0063
 IR Inten    --      0.0885                 0.5433                 0.1133

                      7                      8                      9
                      A                      A                      A
 Frequencies --     76.1684                94.4842               122.6233
 Red. masses --      3.8017                 3.3199                 2.4551
 Frc consts  --      0.0130                 0.0175                 0.0218
 IR Inten    --      6.6378                 0.9187                 1.3362

                     10                     11                     12
                      A                      A                      A
 Frequencies --    126.9638               159.4332               178.7802
 Red. masses --      4.9192                 3.6588                 1.1554
 Frc consts  --      0.0467                 0.0548                 0.0218
 IR Inten    --      0.8748                 0.5527                 0.3167

                     13                     14                     15
                      A                      A                      A
 Frequencies --    191.0356               200.0345               207.2274
 Red. masses --      4.1854                 2.0332                 1.4733
 Frc consts  --      0.0900                 0.0479                 0.0373
 IR Inten    --      1.0051                 1.4494                 1.2211

                     16                     17                     18
                      A                      A                      A
 Frequencies --    237.3244               249.5870               258.5181
 Red. masses --      2.0885                 2.2012                 1.5054
 Frc consts  --      0.0693                 0.0808                 0.0593
 IR Inten    --      1.1400                 2.6719                 0.5581

                     19                     20                     21
                      A                      A                      A
 Frequencies --    283.1121               305.2708               327.4797
 Red. masses --      3.3096                 2.4844                 2.6586
 Frc consts  --      0.1563                 0.1364                 0.1680
 IR Inten    --      0.4796                 0.4658                 1.9110

                     22                     23                     24
                      A                      A                      A
 Frequencies --    335.3682               340.6253               344.0584
 Red. masses --      2.8814                 4.8608                 4.2406
 Frc consts  --      0.1909                 0.3323                 0.2958
 IR Inten    --      0.6773                 1.6300                 3.0530

                     25                     26                     27
                      A                      A                      A
 Frequencies --    352.7007               400.9785               411.9230
 Red. masses --      1.0974                 3.1373                 3.9135
 Frc consts  --      0.0804                 0.2972                 0.3912
 IR Inten    --      0.1148                 0.6401                 1.4634

                     28                     29                     30
                      A                      A                      A
 Frequencies --    422.5330               428.5095               430.4110
 Red. masses --      3.0493                 3.1395                 2.8099
 Frc consts  --      0.3208                 0.3396                 0.3067
 IR Inten    --      0.3248                 1.3095                 2.3768

                     31                     32                     33
                      A                      A                      A
 Frequencies --    473.1128               489.5612               501.4572
 Red. masses --      5.6944                 2.7671                 4.0147
 Frc consts  --      0.7510                 0.3907                 0.5948
 IR Inten    --     10.2129                14.5060                 4.7409

                     34                     35                     36
                      A                      A                      A
 Frequencies --    529.2905               536.1108               561.8193
 Red. masses --      3.8485                 4.3800                 3.9511
 Frc consts  --      0.6352                 0.7417                 0.7348
 IR Inten    --      7.1572                27.3290               133.0327

                     37                     38                     39
                      A                      A                      A
 Frequencies --    574.8210               608.5969               648.6572
 Red. masses --      4.7501                 3.8982                 4.1696
 Frc consts  --      0.9247                 0.8507                 1.0337
 IR Inten    --      8.0503                 0.1984                10.9521

                     40                     41                     42
                      A                      A                      A
 Frequencies --    660.9719               697.6726               713.4382
 Red. masses --      6.9178                 4.5325                 4.8776
 Frc consts  --      1.7807                 1.2999                 1.4627
 IR Inten    --      1.2677                21.0326                21.8619

                     43                     44                     45
                      A                      A                      A
 Frequencies --    747.2720               748.1950               781.0419
 Red. masses --      2.5694                 4.7524                 1.9333
 Frc consts  --      0.8453                 1.5675                 0.6949
 IR Inten    --     46.1801               169.5719                67.8741

                     46                     47                     48
                      A                      A                      A
 Frequencies --    800.0354               804.0357               813.8856
 Red. masses --      3.8189                 1.3308                 2.6710
 Frc consts  --      1.4401                 0.5069                 1.0425
 IR Inten    --      0.5903                26.2300                90.1664

                     49                     50                     51
                      A                      A                      A
 Frequencies --    821.5760               823.5182               856.8950
 Red. masses --      2.1917                 4.3632                 4.0233
 Frc consts  --      0.8716                 1.7434                 1.7406
 IR Inten    --     45.4666                 4.7196                51.0682

                     52                     53                     54
                      A                      A                      A
 Frequencies --    887.3825               935.3330               941.3858
 Red. masses --      1.5267                 3.5617                 1.3545
 Frc consts  --      0.7083                 1.8358                 0.7073
 IR Inten    --      0.5654                23.0059                 4.0784

                     55                     56                     57
                      A                      A                      A
 Frequencies --    949.8797               958.1690               964.3054
 Red. masses --      1.6816                 1.6539                 1.3001
 Frc consts  --      0.8940                 0.8946                 0.7123
 IR Inten    --      1.2407                 1.3116                 0.0199

                     58                     59                     60
                      A                      A                      A
 Frequencies --    974.6660               979.2051              1015.9060
 Red. masses --      1.3700                 1.2074                 1.3001
 Frc consts  --      0.7668                 0.6821                 0.7906
 IR Inten    --      1.0653                 0.0659                 0.2656

                     61                     62                     63
                      A                      A                      A
 Frequencies --   1019.2814              1046.0250              1057.7193
 Red. masses --      2.6623                 2.6104                 1.4134
 Frc consts  --      1.6297                 1.6828                 0.9317
 IR Inten    --     11.8366                61.0511                 0.6505

                     64                     65                     66
                      A                      A                      A
 Frequencies --   1064.4620              1065.8084              1089.6199
 Red. masses --      2.0685                 2.1355                 5.4177
 Frc consts  --      1.3809                 1.4293                 3.7898
 IR Inten    --     27.1190               196.3989               128.3041

                     67                     68                     69
                      A                      A                      A
 Frequencies --   1120.4573              1133.1996              1153.5566
 Red. masses --      1.8111                 1.2667                 1.3060
 Frc consts  --      1.3396                 0.9584                 1.0240
 IR Inten    --    100.2897                44.4847                 5.3736

                     70                     71                     72
                      A                      A                      A
 Frequencies --   1167.8027              1176.5555              1183.3992
 Red. masses --      1.4052                 1.4090                 1.2800
 Frc consts  --      1.1291                 1.1492                 1.0561
 IR Inten    --     33.4798                 2.1237                 1.6341

                     73                     74                     75
                      A                      A                      A
 Frequencies --   1193.4816              1199.5659              1212.2024
 Red. masses --      1.3565                 1.8205                 1.4501
 Frc consts  --      1.1384                 1.5434                 1.2555
 IR Inten    --    111.4313                10.5890                36.1605

                     76                     77                     78
                      A                      A                      A
 Frequencies --   1221.9818              1241.0166              1248.9365
 Red. masses --      3.2009                 2.7833                 2.9088
 Frc consts  --      2.8161                 2.5256                 2.6733
 IR Inten    --    513.4546                 6.7957                 9.4053

                     79                     80                     81
                      A                      A                      A
 Frequencies --   1263.7062              1277.3546              1298.2118
 Red. masses --      6.5288                 2.8949                 2.3896
 Frc consts  --      6.1430                 2.7829                 2.3729
 IR Inten    --    348.7195                67.5324               191.2979

                     82                     83                     84
                      A                      A                      A
 Frequencies --   1308.1885              1335.1448              1368.3414
 Red. masses --      4.2894                 1.3662                 2.2892
 Frc consts  --      4.3250                 1.4349                 2.5254
 IR Inten    --    202.5955                25.8430               214.3253

                     85                     86                     87
                      A                      A                      A
 Frequencies --   1378.2436              1392.4444              1411.5816
 Red. masses --      4.9257                 4.9592                 1.3994
 Frc consts  --      5.5127                 5.6652                 1.6429
 IR Inten    --    132.9413               328.4335                76.5200

                     88                     89                     90
                      A                      A                      A
 Frequencies --   1413.2276              1427.9157              1445.3541
 Red. masses --      1.3374                 2.1347                 1.2978
 Frc consts  --      1.5738                 2.5644                 1.5973
 IR Inten    --     62.3431               270.0128               115.5347

                     91                     92                     93
                      A                      A                      A
 Frequencies --   1464.3142              1474.1998              1479.4182
 Red. masses --      3.0625                 1.2307                 1.0497
 Frc consts  --      3.8689                 1.5758                 1.3536
 IR Inten    --     37.3659                10.2043                 4.4973

                     94                     95                     96
                      A                      A                      A
 Frequencies --   1481.9462              1484.3032              1488.8636
 Red. masses --      1.0955                 1.2443                 1.0426
 Frc consts  --      1.4175                 1.6151                 1.3617
 IR Inten    --     20.9281                76.6459                12.1166

                     97                     98                     99
                      A                      A                      A
 Frequencies --   1489.1009              1499.5918              1502.7678
 Red. masses --      1.0445                 1.3506                 1.1493
 Frc consts  --      1.3646                 1.7895                 1.5292
 IR Inten    --      1.2299               234.7212                16.3344

                    100                    101                    102
                      A                      A                      A
 Frequencies --   1504.2557              1507.9857              1519.5418
 Red. masses --      1.1405                 1.1093                 1.2828
 Frc consts  --      1.5205                 1.4863                 1.7452
 IR Inten    --     21.8145               127.9267               132.9047

                    103                    104                    105
                      A                      A                      A
 Frequencies --   1523.3178              1524.9387              1525.3811
 Red. masses --      1.5782                 1.2375                 1.8602
 Frc consts  --      2.1578                 1.6955                 2.5501
 IR Inten    --     21.6642                53.0873               371.5859

                    106                    107                    108
                      A                      A                      A
 Frequencies --   1539.3552              1552.3182              1611.7077
 Red. masses --      2.1655                 3.7471                 6.9091
 Frc consts  --      3.0233                 5.3200                10.5741
 IR Inten    --      0.6210               105.2962                20.0425

                    109                    110                    111
                      A                      A                      A
 Frequencies --   1658.3298              1684.7579              1685.6445
 Red. masses --      7.0362                 6.6098                 6.5477
 Frc consts  --     11.4007                11.0539                10.9615
 IR Inten    --      3.5952                20.8555                 1.1281

                    112                    113                    114
                      A                      A                      A
 Frequencies --   1939.9262              3022.7379              3061.2003
 Red. masses --     13.6898                 1.0350                 1.0402
 Frc consts  --     30.3542                 5.5716                 5.7431
 IR Inten    --   1642.8397                90.7389                11.9011

                    115                    116                    117
                      A                      A                      A
 Frequencies --   3062.4295              3068.7506              3075.6147
 Red. masses --      1.0398                 1.0410                 1.0442
 Frc consts  --      5.7455                 5.7759                 5.8198
 IR Inten    --     37.9940                62.5881                68.4159

                    118                    119                    120
                      A                      A                      A
 Frequencies --   3080.2716              3124.3069              3125.7717
 Red. masses --      1.1063                 1.1031                 1.1026
 Frc consts  --      6.1847                 6.3444                 6.3470
 IR Inten    --     63.1514                17.5587                34.1364

                    121                    122                    123
                      A                      A                      A
 Frequencies --   3138.4748              3138.7798              3155.6807
 Red. masses --      1.1036                 1.0975                 1.0999
 Frc consts  --      6.4045                 6.3705                 6.4532
 IR Inten    --     17.3396                88.5504                36.5129

                    124                    125                    126
                      A                      A                      A
 Frequencies --   3159.5683              3166.5209              3171.4056
 Red. masses --      1.0982                 1.1028                 1.0968
 Frc consts  --      6.4594                 6.5153                 6.4997
 IR Inten    --     42.5615                33.8100                29.8141

                    127                    128                    129
                      A                      A                      A
 Frequencies --   3193.2717              3195.9105              3207.3219
 Red. masses --      1.0877                 1.0885                 1.0920
 Frc consts  --      6.5348                 6.5504                 6.6187
 IR Inten    --      6.3780                19.1845                13.5075

                    130                    131                    132
                      A                      A                      A
 Frequencies --   3207.4076              3215.3322              3223.7737
 Red. masses --      1.0891                 1.0950                 1.0954
 Frc consts  --      6.6012                 6.6698                 6.7075
 IR Inten    --     20.1449                10.2049                12.6834

                    133                    134                    135
                      A                      A                      A
 Frequencies --   3225.1114              3245.0211              3255.1658
 Red. masses --      1.0938                 1.0933                 1.0936
 Frc consts  --      6.7029                 6.7829                 6.8272
 IR Inten    --      8.7691                 7.5455                 9.2193

 - Thermochemistry -
 -------------------
 Temperature   298.150 Kelvin.  Pressure   1.00000 Atm.
 Atom     1 has atomic number  6 and mass  12.00000

 Molecular mass:   321.18411 amu.
 Principal axes and moments of inertia in atomic units:
                           1         2         3
     Eigenvalues --  4027.73513********************
           X            0.99991   0.01295  -0.00432
           Y           -0.01295   0.99992   0.00030
           Z            0.00432  -0.00024   0.99999
 This molecule is an asymmetric top.
 Rotational symmetry number  1.
 Warning -- assumption of classical behavior for rotation
           may cause significant error
 Rotational temperatures (Kelvin)      0.02150     0.00587     0.00491
 Rotational constants (GHZ):           0.44808     0.12233     0.10241
    1 imaginary frequencies ignored.
 Zero-point vibrational energy    1034989.8 (Joules/Mol)
                                  247.36850 (Kcal/Mol)
 Warning -- explicit consideration of  37 degrees of freedom as
           vibrations may cause significant error
 Vibrational temperatures:     16.89    34.79    55.14    56.93    90.70
          (Kelvin)            109.59   135.94   176.43   182.67   229.39
                              257.22   274.86   287.81   298.15   341.46
                              359.10   371.95   407.34   439.22   471.17
                              482.52   490.08   495.02   507.46   576.92
                              592.67   607.93   616.53   619.27   680.70
                              704.37   721.49   761.53   771.34   808.33
                              827.04   875.64   933.27   950.99  1003.80
                             1026.48  1075.16  1076.49  1123.75  1151.07
                             1156.83  1171.00  1182.06  1184.86  1232.88
                             1276.75  1345.74  1354.44  1366.67  1378.59
                             1387.42  1402.33  1408.86  1461.66  1466.52
                             1505.00  1521.82  1531.52  1533.46  1567.72
                             1612.09  1630.42  1659.71  1680.21  1692.80
                             1702.65  1717.15  1725.91  1744.09  1758.16
                             1785.55  1796.94  1818.19  1837.83  1867.84
                             1882.19  1920.98  1968.74  1982.99  2003.42
                             2030.95  2033.32  2054.45  2079.54  2106.82
                             2121.04  2128.55  2132.19  2135.58  2142.14
                             2142.48  2157.58  2162.15  2164.29  2169.66
                             2186.28  2191.71  2194.05  2194.68  2214.79
                             2233.44  2318.89  2385.97  2423.99  2425.27
                             2791.12  4349.05  4404.38  4406.15  4415.25
                             4425.12  4431.82  4495.18  4497.29  4515.57
                             4516.00  4540.32  4545.91  4555.92  4562.95
                             4594.41  4598.20  4614.62  4614.74  4626.15
                             4638.29  4640.22  4668.86  4683.46

 Zero-point correction=                           0.394207 (Hartree/Particle)
 Thermal correction to Energy=                    0.416623
 Thermal correction to Enthalpy=                  0.417567
 Thermal correction to Gibbs Free Energy=         0.340882
 Sum of electronic and zero-point Energies=          -1014.708451
 Sum of electronic and thermal Energies=             -1014.686034
 Sum of electronic and thermal Enthalpies=           -1014.685090
 Sum of electronic and thermal Free Energies=        -1014.761775

                     E (Thermal)             CV                S
                      KCal/Mol        Cal/Mol-Kelvin    Cal/Mol-Kelvin
 Total                  261.435             86.741            161.397
 Electronic               0.000              0.000              0.000
 Translational            0.889              2.981             43.196
 Rotational               0.889              2.981             35.303
 Vibrational            259.657             80.780             82.898
 Vibration     1          0.593              1.987              7.692
 Vibration     2          0.593              1.985              6.257
 Vibration     3          0.594              1.982              5.344
 Vibration     4          0.594              1.981              5.280
 Vibration     5          0.597              1.972              4.360
 Vibration     6          0.599              1.965              3.987
 Vibration     7          0.603              1.953              3.565
 Vibration     8          0.610              1.930              3.059
 Vibration     9          0.611              1.926              2.992
 Vibration    10          0.621              1.892              2.557
 Vibration    11          0.629              1.868              2.341
 Vibration    12          0.634              1.852              2.218
 Vibration    13          0.638              1.840              2.133
 Vibration    14          0.641              1.830              2.068
 Vibration    15          0.656              1.784              1.823
 Vibration    16          0.662              1.763              1.733
 Vibration    17          0.667              1.748              1.672
 Vibration    18          0.682              1.705              1.515
 Vibration    19          0.696              1.664              1.388
 Vibration    20          0.711              1.621              1.272
 Vibration    21          0.716              1.605              1.234
 Vibration    22          0.720              1.594              1.209
 Vibration    23          0.723              1.587              1.193
 Vibration    24          0.729              1.570              1.154
 Vibration    25          0.767              1.468              0.959
 Vibration    26          0.776              1.444              0.920
 Vibration    27          0.785              1.421              0.883
 Vibration    28          0.790              1.408              0.864
 Vibration    29          0.792              1.404              0.857
 Vibration    30          0.830              1.310              0.729
 Vibration    31          0.845              1.273              0.685
 Vibration    32          0.857              1.247              0.654
 Vibration    33          0.884              1.185              0.589
 Vibration    34          0.891              1.170              0.574
 Vibration    35          0.918              1.114              0.520
 Vibration    36          0.931              1.086              0.495
 Vibration    37          0.967              1.014              0.435

 Normal termination of Gaussian 16 at Thu Jan 30 16:22:30 2025.
