 Gaussian 16, Revision C.01,
 Gaussian 16:  ES64L-G16RevC.01  3-Jul-2019

 ----------------------------------------------------------------------
 # CAM-B3LYP/6-311G(d,p) freq scrf=(solvent=acetonitrile) empiricaldisp
 ersion=gd3bj
 ----------------------------------------------------------------------

 -
 -
 -
 Symbolic Z-matrix:
 Charge =  0 Multiplicity = 1

                         Standard orientation:
 ---------------------------------------------------------------------
 Center     Atomic      Atomic             Coordinates (Angstroms)
 Number     Number       Type             X           Y           Z
 ---------------------------------------------------------------------
      1          6           0        2.493492   -1.165882    0.058640
      2          6           0        3.406425   -0.238298   -0.452204
      3          6           0        4.649057   -0.634397   -0.946180
      4          6           0        4.948501   -1.984522   -0.911754
      5          6           0        4.038323   -2.923437   -0.402326
      6          6           0        2.805178   -2.523704    0.076843
      7          6           0        1.303175   -0.425525    0.428286
      8          1           0        5.363783    0.076881   -1.338491
      9          1           0        5.907308   -2.322588   -1.285512
     10          1           0        4.310952   -3.971618   -0.384877
     11          1           0        2.091615   -3.240607    0.465733
     12          6           0        3.591891    2.199619   -0.761819
     13          1           0        4.237531    2.574218    0.034335
     14          1           0        4.209262    1.926659   -1.615349
     15          1           0        2.921956    2.987411   -1.084052
     16          6           0        1.573462    0.936692    0.185419
     17          6           0        0.756608    2.160112    0.574016
     18          7           0        0.212260   -1.029837    0.885115
     19          7           0       -0.800099   -1.660955    1.212426
     20          6           0       -2.058030   -1.192568    0.696073
     21          6           0       -3.205992   -1.561910    1.392814
     22          6           0       -2.181485   -0.496569   -0.498534
     23          6           0       -4.452389   -1.195556    0.930077
     24          1           0       -3.097177   -2.134416    2.306257
     25          6           0       -3.430330   -0.140978   -0.987181
     26          1           0       -1.289387   -0.239527   -1.056627
     27          6           0       -4.573182   -0.480124   -0.264138
     28          1           0       -5.354160   -1.456920    1.469034
     29          1           0       -3.501554    0.392679   -1.924007
     30          8           0       -5.836032   -0.173045   -0.644131
     31          6           0       -6.019135    0.553584   -1.849944
     32          1           0       -5.642495   -0.005528   -2.710408
     33          1           0       -7.091702    0.695729   -1.953614
     34          1           0       -5.526360    1.528221   -1.803218
     35          7           0        2.848633    1.023582   -0.340765
     36          6           0       -0.408412    1.767666    1.494267
     37          1           0       -1.124827    1.118025    1.002966
     38          1           0       -0.051841    1.272014    2.398857
     39          1           0       -0.935234    2.676250    1.793109
     40          6           0        0.166807    2.824626   -0.683089
     41          1           0       -0.418087    3.701132   -0.395056
     42          1           0        0.932016    3.152198   -1.386980
     43          1           0       -0.495480    2.133723   -1.207516
     44          6           0        1.600690    3.170550    1.377584
     45          1           0        2.361021    3.677671    0.790732
     46          1           0        0.937433    3.939320    1.778854
     47          1           0        2.090202    2.677621    2.220350
 ---------------------------------------------------------------------

 SCF Done:  E(RCAM-B3LYP) =  -1015.09928801     A.U. after   17 cycles

 The electronic state is 1-A.
 Alpha  occ. eigenvalues --  -19.22659 -14.44288 -14.43780 -14.40956 -10.31535
 Alpha  occ. eigenvalues --  -10.29638 -10.29431 -10.29366 -10.28234 -10.28000
 Alpha  occ. eigenvalues --  -10.27461 -10.26636 -10.25483 -10.25340 -10.25134
 Alpha  occ. eigenvalues --  -10.25055 -10.24836 -10.24696 -10.24535 -10.24470
 Alpha  occ. eigenvalues --  -10.24169 -10.23492 -10.23192 -10.22635  -1.15826
 Alpha  occ. eigenvalues --   -1.10782  -1.08337  -0.95641  -0.94255  -0.92640
 Alpha  occ. eigenvalues --   -0.90310  -0.85962  -0.84475  -0.83470  -0.82480
 Alpha  occ. eigenvalues --   -0.80902  -0.78139  -0.77423  -0.76712  -0.73555
 Alpha  occ. eigenvalues --   -0.70954  -0.70211  -0.68156  -0.66786  -0.64230
 Alpha  occ. eigenvalues --   -0.62837  -0.61810  -0.59989  -0.57387  -0.56884
 Alpha  occ. eigenvalues --   -0.55394  -0.54994  -0.54793  -0.54621  -0.52569
 Alpha  occ. eigenvalues --   -0.51837  -0.51477  -0.51283  -0.50884  -0.50332
 Alpha  occ. eigenvalues --   -0.50253  -0.49752  -0.48656  -0.47486  -0.47116
 Alpha  occ. eigenvalues --   -0.46898  -0.46008  -0.45443  -0.45046  -0.44360
 Alpha  occ. eigenvalues --   -0.43263  -0.43098  -0.42781  -0.41346  -0.41170
 Alpha  occ. eigenvalues --   -0.40751  -0.40021  -0.39312  -0.38989  -0.38368
 Alpha  occ. eigenvalues --   -0.34570  -0.32255  -0.29239  -0.28487  -0.27452
 Alpha  occ. eigenvalues --   -0.21178
 Alpha virt. eigenvalues --   -0.02823   0.02344   0.02912   0.05784   0.06956
 Alpha virt. eigenvalues --    0.07774   0.09266   0.10047   0.10921   0.11250
 Alpha virt. eigenvalues --    0.11722   0.12568   0.12801   0.13742   0.14227

 Mulliken charges:
               1
     1  C   -0.092232
     2  C    0.201649
     3  C   -0.084614
     4  C   -0.135994
     5  C   -0.138467
     6  C   -0.061423
     7  C    0.096075
     8  H    0.126848
     9  H    0.116344
    10  H    0.115399
    11  H    0.105905
    12  C   -0.185381
    13  H    0.155281
    14  H    0.144601
    15  H    0.146062
    16  C    0.308530
    17  C   -0.285958
    18  N   -0.301277
    19  N   -0.196369
    20  C   -0.009693
    21  C   -0.066861
    22  C   -0.111281
    23  C   -0.113582
    24  H    0.110715
    25  C   -0.146288
    26  H    0.139003
    27  C    0.164696
    28  H    0.123033
    29  H    0.140147
    30  O   -0.349583
    31  C   -0.159085
    32  H    0.129076
    33  H    0.143151
    34  H    0.128912
    35  N   -0.480416
    36  C   -0.270435
    37  H    0.136151
    38  H    0.121374
    39  H    0.116812
    40  C   -0.236010
    41  H    0.122182
    42  H    0.111761
    43  H    0.117015
    44  C   -0.258652
    45  H    0.117489
    46  H    0.121012
    47  H    0.124376
 Sum of Mulliken charges =  -0.00000

 Dipole moment (field-independent basis, Debye):
    X=              1.1598    Y=              6.7549    Z=             -3.9484  Tot=              7.9097
 Quadrupole moment (field-independent basis, Debye-Ang):
   XX=           -123.7119   YY=           -137.0869   ZZ=           -140.3719
   XY=              3.4360   XZ=              3.9826   YZ=             -2.2568

  Exact polarizability:     546.308      14.044     342.937     -40.937     -35.985     244.427
 Approx polarizability:     409.289      10.187     311.337     -36.422     -38.911     239.435

 ******    1 imaginary frequencies (negative Signs) ******

                      1                      2                      3
                      A                      A                      A
 Frequencies --   -522.8661                20.0911                38.6287
 Red. masses --     13.1254                 4.7616                 3.2995
 Frc consts  --      2.1142                 0.0011                 0.0029
 IR Inten    --    194.7960                 2.3962                 0.8394

                      4                      5                      6
                      A                      A                      A
 Frequencies --     46.0145                58.5993                62.8970
 Red. masses --      4.1282                 2.9038                 3.3103
 Frc consts  --      0.0051                 0.0059                 0.0077
 IR Inten    --      1.1639                 0.1850                 2.2409

                      7                      8                      9
                      A                      A                      A
 Frequencies --    104.1871               122.8415               125.5425
 Red. masses --      3.4060                 4.6960                 3.4551
 Frc consts  --      0.0218                 0.0418                 0.0321
 IR Inten    --      2.0302                 0.2744                 6.3333

                     10                     11                     12
                      A                      A                      A
 Frequencies --    136.2697               166.1895               189.5636
 Red. masses --      2.5612                 2.1271                 2.8699
 Frc consts  --      0.0280                 0.0346                 0.0608
 IR Inten    --      7.3981                 3.5084                13.9132

                     13                     14                     15
                      A                      A                      A
 Frequencies --    198.6184               216.6654               232.6340
 Red. masses --      2.4477                 1.5598                 1.4630
 Frc consts  --      0.0569                 0.0431                 0.0466
 IR Inten    --     12.5083                10.8332                 1.8508

                     16                     17                     18
                      A                      A                      A
 Frequencies --    239.7418               253.2131               256.6375
 Red. masses --      1.5733                 1.8005                 1.5033
 Frc consts  --      0.0533                 0.0680                 0.0583
 IR Inten    --      0.8878                 0.9699                15.7947

                     19                     20                     21
                      A                      A                      A
 Frequencies --    278.6769               295.1088               298.2068
 Red. masses --      2.5389                 3.4716                 4.9433
 Frc consts  --      0.1162                 0.1781                 0.2590
 IR Inten    --      0.2159                 3.3825                26.9706

                     22                     23                     24
                      A                      A                      A
 Frequencies --    313.6516               331.9873               338.8716
 Red. masses --      1.2440                 2.8582                 2.7599
 Frc consts  --      0.0721                 0.1856                 0.1867
 IR Inten    --      0.6570                 3.0295                13.8825

                     25                     26                     27
                      A                      A                      A
 Frequencies --    365.0140               387.7199               410.2698
 Red. masses --      4.4664                 3.5667                 2.7913
 Frc consts  --      0.3506                 0.3159                 0.2768
 IR Inten    --     41.4158                29.2734                 1.8449

                     28                     29                     30
                      A                      A                      A
 Frequencies --    429.5490               440.3267               450.2030
 Red. masses --      2.5862                 2.9389                 3.9238
 Frc consts  --      0.2811                 0.3357                 0.4686
 IR Inten    --      4.1439                 2.5222                 8.7185

                     31                     32                     33
                      A                      A                      A
 Frequencies --    468.7806               507.7058               527.7241
 Red. masses --      4.9862                 4.7311                 4.2127
 Frc consts  --      0.6456                 0.7185                 0.6912
 IR Inten    --      5.3623                 4.3437                20.7467

                     34                     35                     36
                      A                      A                      A
 Frequencies --    538.8413               543.8442               573.0005
 Red. masses --      2.9097                 3.2908                 4.6762
 Frc consts  --      0.4978                 0.5735                 0.9046
 IR Inten    --     10.1848                63.0078                15.1598

                     37                     38                     39
                      A                      A                      A
 Frequencies --    601.7848               614.8250               650.0832
 Red. masses --      4.2135                 4.8645                 5.8529
 Frc consts  --      0.8990                 1.0834                 1.4573
 IR Inten    --      3.3105                14.0707                 0.4843

                     40                     41                     42
                      A                      A                      A
 Frequencies --    660.4761               675.9337               721.0610
 Red. masses --      5.3241                 5.3569                 4.7710
 Frc consts  --      1.3684                 1.4420                 1.4615
 IR Inten    --      2.4720                 3.7551                27.9637

                     43                     44                     45
                      A                      A                      A
 Frequencies --    735.0160               760.6796               773.4684
 Red. masses --      4.1260                 3.6063                 1.5660
 Frc consts  --      1.3133                 1.2295                 0.5520
 IR Inten    --     69.3333                13.1822                77.6371

                     46                     47                     48
                      A                      A                      A
 Frequencies --    791.6367               809.7979               844.2408
 Red. masses --      4.2821                 3.7142                 1.9320
 Frc consts  --      1.5811                 1.4350                 0.8113
 IR Inten    --      6.1662                11.1704                36.0278

                     49                     50                     51
                      A                      A                      A
 Frequencies --    846.3457               852.7531               873.5433
 Red. masses --      1.8777                 5.2363                 1.8932
 Frc consts  --      0.7924                 2.2435                 0.8512
 IR Inten    --      6.1533                38.7066               132.5705

                     52                     53                     54
                      A                      A                      A
 Frequencies --    882.2875               904.6361               947.5515
 Red. masses --      1.4968                 3.0118                 1.6953
 Frc consts  --      0.6865                 1.4522                 0.8968
 IR Inten    --     10.1878                10.3146                 0.6808

                     55                     56                     57
                      A                      A                      A
 Frequencies --    956.0131               971.0178               972.8261
 Red. masses --      1.6584                 1.2075                 1.3631
 Frc consts  --      0.8931                 0.6708                 0.7601
 IR Inten    --      1.0888                 0.1995                 2.9493

                     58                     59                     60
                      A                      A                      A
 Frequencies --    988.4497              1004.8734              1011.1390
 Red. masses --      1.3442                 1.3474                 1.2933
 Frc consts  --      0.7738                 0.8016                 0.7790
 IR Inten    --     17.6243                 5.5772                 0.1306

                     61                     62                     63
                      A                      A                      A
 Frequencies --   1027.1941              1031.2139              1049.5911
 Red. masses --      3.2317                 2.3880                 2.0034
 Frc consts  --      2.0090                 1.4962                 1.3003
 IR Inten    --     93.7866                 6.8907                22.1051

                     64                     65                     66
                      A                      A                      A
 Frequencies --   1053.9991              1065.2387              1080.7283
 Red. masses --      1.4001                 1.7977                 6.2625
 Frc consts  --      0.9164                 1.2019                 4.3095
 IR Inten    --      9.5430                 1.5931                83.9525

                     67                     68                     69
                      A                      A                      A
 Frequencies --   1122.7581              1127.5255              1146.7221
 Red. masses --      1.9155                 1.2478                 1.5739
 Frc consts  --      1.4226                 0.9346                 1.2194
 IR Inten    --    125.3550                60.4525                25.0875

                     70                     71                     72
                      A                      A                      A
 Frequencies --   1148.3213              1154.7062              1170.5232
 Red. masses --      1.4185                 1.6004                 1.5120
 Frc consts  --      1.1020                 1.2573                 1.2205
 IR Inten    --     21.6520                63.1681                46.4684

                     73                     74                     75
                      A                      A                      A
 Frequencies --   1182.6441              1194.0649              1205.0537
 Red. masses --      1.2779                 1.9313                 1.6799
 Frc consts  --      1.0530                 1.6224                 1.4373
 IR Inten    --      1.2562                85.4599                79.6720

                     76                     77                     78
                      A                      A                      A
 Frequencies --   1213.1493              1236.9675              1246.7962
 Red. masses --      1.4192                 2.6377                 2.7434
 Frc consts  --      1.2306                 2.3779                 2.5126
 IR Inten    --     25.1489                94.3413                24.3364

                     79                     80                     81
                      A                      A                      A
 Frequencies --   1255.0494              1281.1634              1297.2151
 Red. masses --      2.6681                 2.9944                 4.8368
 Frc consts  --      2.4761                 2.8958                 4.7955
 IR Inten    --    126.7531               178.8968               407.2916

                     82                     83                     84
                      A                      A                      A
 Frequencies --   1327.8322              1342.8029              1344.8653
 Red. masses --      1.3809                 4.0194                 2.3521
 Frc consts  --      1.4345                 4.2700                 2.5065
 IR Inten    --     48.3931               119.5316               167.1516

                     85                     86                     87
                      A                      A                      A
 Frequencies --   1367.2466              1388.5792              1405.1815
 Red. masses --      4.6157                 5.2970                 1.9413
 Frc consts  --      5.0837                 6.0175                 2.2585
 IR Inten    --    156.8738                45.2541               232.0472

                     88                     89                     90
                      A                      A                      A
 Frequencies --   1411.1336              1417.5955              1438.9136
 Red. masses --      1.2343                 1.8391                 1.3425
 Frc consts  --      1.4481                 2.1775                 1.6377
 IR Inten    --     26.5183               117.1129                45.2047

                     91                     92                     93
                      A                      A                      A
 Frequencies --   1466.7228              1471.5415              1477.4880
 Red. masses --      2.3896                 2.6259                 1.4256
 Frc consts  --      3.0288                 3.3502                 1.8335
 IR Inten    --      7.7009                 9.8646                47.4139

                     94                     95                     96
                      A                      A                      A
 Frequencies --   1484.0400              1486.8295              1487.8266
 Red. masses --      1.0579                 1.2112                 1.0512
 Frc consts  --      1.3727                 1.5775                 1.3711
 IR Inten    --      2.9322                20.8404                 1.3198

                     97                     98                     99
                      A                      A                      A
 Frequencies --   1492.2850              1493.8195              1499.0860
 Red. masses --      1.0421                 1.1295                 1.0784
 Frc consts  --      1.3672                 1.4850                 1.4279
 IR Inten    --     14.2791                37.3132                 6.9438

                    100                    101                    102
                      A                      A                      A
 Frequencies --   1505.6217              1506.4695              1516.3403
 Red. masses --      1.0732                 1.0617                 1.2857
 Frc consts  --      1.4334                 1.4197                 1.7418
 IR Inten    --     41.4055                42.6319                52.9628

                    103                    104                    105
                      A                      A                      A
 Frequencies --   1519.8572              1524.6893              1529.2135
 Red. masses --      2.0475                 1.2542                 1.4811
 Frc consts  --      2.7866                 1.7178                 2.0407
 IR Inten    --     62.5468                36.8497                40.3710

                    106                    107                    108
                      A                      A                      A
 Frequencies --   1534.5710              1548.8747              1656.0697
 Red. masses --      1.5493                 2.4920                 7.5131
 Frc consts  --      2.1497                 3.5224                12.1402
 IR Inten    --     20.2606               190.4409                17.9144

                    109                    110                    111
                      A                      A                      A
 Frequencies --   1659.4908              1670.7675              1680.2962
 Red. masses --      7.2702                 6.1151                 6.8886
 Frc consts  --     11.7963                10.0574                11.4591
 IR Inten    --      4.3603               219.4174                 1.7900

                    112                    113                    114
                      A                      A                      A
 Frequencies --   1804.8739              3040.6489              3057.0742
 Red. masses --     13.3309                 1.0339                 1.0368
 Frc consts  --     25.5860                 5.6322                 5.7088
 IR Inten    --    147.9741                63.0319                41.4617

                    115                    116                    117
                      A                      A                      A
 Frequencies --   3060.4737              3066.7657              3074.1348
 Red. masses --      1.0415                 1.0415                 1.0445
 Frc consts  --      5.7478                 5.7715                 5.8155
 IR Inten    --      8.0646                52.2046               105.7159

                    118                    119                    120
                      A                      A                      A
 Frequencies --   3106.8963              3119.3798              3123.2735
 Red. masses --      1.1074                 1.1030                 1.1023
 Frc consts  --      6.2979                 6.3235                 6.3351
 IR Inten    --     44.2115                 2.0729                27.1515

                    121                    122                    123
                      A                      A                      A
 Frequencies --   3126.6845              3136.9951              3149.3409
 Red. masses --      1.1018                 1.1020                 1.0987
 Frc consts  --      6.3461                 6.3895                 6.4204
 IR Inten    --    102.5630                46.2808                20.3398

                    124                    125                    126
                      A                      A                      A
 Frequencies --   3169.8352              3175.6903              3188.7372
 Red. masses --      1.1016                 1.0965                 1.0864
 Frc consts  --      6.5218                 6.5152                 6.5086
 IR Inten    --     28.5816                31.3683                 0.9914

                    127                    128                    129
                      A                      A                      A
 Frequencies --   3196.8718              3198.4861              3198.5898
 Red. masses --      1.0952                 1.0888                 1.0903
 Frc consts  --      6.5944                 6.5627                 6.5724
 IR Inten    --      3.4712                 6.4205                 9.1198

                    130                    131                    132
                      A                      A                      A
 Frequencies --   3204.3057              3208.9802              3210.5411
 Red. masses --      1.0895                 1.0955                 1.0979
 Frc consts  --      6.5912                 6.6464                 6.6674
 IR Inten    --      3.8953                41.6646                 4.9698

                    133                    134                    135
                      A                      A                      A
 Frequencies --   3215.5227              3219.8173              3233.7826
 Red. masses --      1.0955                 1.0961                 1.0928
 Frc consts  --      6.6739                 6.6950                 6.7332
 IR Inten    --     22.2404                21.3220                 9.3173

 - Thermochemistry -
 -------------------
 Temperature   298.150 Kelvin.  Pressure   1.00000 Atm.
 Atom     1 has atomic number  6 and mass  12.00000

 Molecular mass:   321.18411 amu.
 Principal axes and moments of inertia in atomic units:
                           1         2         3
     Eigenvalues --  4256.36006********************
           X            0.99999   0.00187   0.00352
           Y           -0.00188   1.00000   0.00188
           Z           -0.00351  -0.00188   0.99999
 This molecule is an asymmetric top.
 Rotational symmetry number  1.
 Warning -- assumption of classical behavior for rotation
           may cause significant error
 Rotational temperatures (Kelvin)      0.02035     0.00627     0.00541
 Rotational constants (GHZ):           0.42401     0.13075     0.11271
    1 imaginary frequencies ignored.
 Zero-point vibrational energy    1035084.6 (Joules/Mol)
                                  247.39116 (Kcal/Mol)
 Warning -- explicit consideration of  37 degrees of freedom as
           vibrations may cause significant error
 Vibrational temperatures:     28.91    55.58    66.20    84.31    90.49
          (Kelvin)            149.90   176.74   180.63   196.06   239.11
                              272.74   285.77   311.73   334.71   344.93
                              364.32   369.24   400.95   424.60   429.05
                              451.27   477.66   487.56   525.17   557.84
                              590.29   618.03   633.53   647.74   674.47
                              730.48   759.28   775.27   782.47   824.42
                              865.83   884.60   935.32   950.28   972.52
                             1037.45  1057.52  1094.45  1112.85  1138.99
                             1165.12  1214.67  1217.70  1226.92  1256.83
                             1269.41  1301.57  1363.32  1375.49  1397.08
                             1399.68  1422.16  1445.79  1454.80  1477.90
                             1483.69  1510.13  1516.47  1532.64  1554.93
                             1615.40  1622.26  1649.88  1652.18  1661.36
                             1684.12  1701.56  1717.99  1733.80  1745.45
                             1779.72  1793.86  1805.74  1843.31  1866.40
                             1910.45  1931.99  1934.96  1967.16  1997.86
                             2021.74  2030.31  2039.60  2070.28  2110.29
                             2117.22  2125.78  2135.20  2139.22  2140.65
                             2147.07  2149.27  2156.85  2166.25  2167.47
                             2181.68  2186.74  2193.69  2200.20  2207.91
                             2228.49  2382.71  2387.64  2403.86  2417.57
                             2596.81  4374.82  4398.45  4403.34  4412.39
                             4422.99  4470.13  4488.09  4493.69  4498.60
                             4513.44  4531.20  4560.69  4569.11  4587.88
                             4599.59  4601.91  4602.06  4610.28  4617.01
                             4619.25  4626.42  4632.60  4652.69

 Zero-point correction=                           0.394243 (Hartree/Particle)
 Thermal correction to Energy=                    0.416302
 Thermal correction to Enthalpy=                  0.417247
 Thermal correction to Gibbs Free Energy=         0.342999
 Sum of electronic and zero-point Energies=          -1014.705045
 Sum of electronic and thermal Energies=             -1014.682986
 Sum of electronic and thermal Enthalpies=           -1014.682041
 Sum of electronic and thermal Free Energies=        -1014.756289

                     E (Thermal)             CV                S
                      KCal/Mol        Cal/Mol-Kelvin    Cal/Mol-Kelvin
 Total                  261.234             86.409            156.268
 Electronic               0.000              0.000              0.000
 Translational            0.889              2.981             43.196
 Rotational               0.889              2.981             35.196
 Vibrational            259.456             80.447             77.875
 Vibration     1          0.593              1.986              6.625
 Vibration     2          0.594              1.981              5.328
 Vibration     3          0.595              1.979              4.982
 Vibration     4          0.596              1.974              4.504
 Vibration     5          0.597              1.972              4.364
 Vibration     6          0.605              1.946              3.374
 Vibration     7          0.610              1.930              3.055
 Vibration     8          0.610              1.928              3.013
 Vibration     9          0.614              1.917              2.856
 Vibration    10          0.624              1.884              2.478
 Vibration    11          0.633              1.854              2.232
 Vibration    12          0.637              1.842              2.146
 Vibration    13          0.646              1.816              1.987
 Vibration    14          0.653              1.791              1.859
 Vibration    15          0.657              1.780              1.805
 Vibration    16          0.664              1.757              1.708
 Vibration    17          0.666              1.752              1.685
 Vibration    18          0.679              1.713              1.542
 Vibration    19          0.689              1.683              1.444
 Vibration    20          0.691              1.677              1.427
 Vibration    21          0.702              1.648              1.343
 Vibration    22          0.714              1.612              1.250
 Vibration    23          0.719              1.598              1.217
 Vibration    24          0.738              1.544              1.101
 Vibration    25          0.756              1.496              1.009
 Vibration    26          0.774              1.448              0.926
 Vibration    27          0.791              1.406              0.860
 Vibration    28          0.800              1.382              0.826
 Vibration    29          0.809              1.360              0.795
 Vibration    30          0.826              1.319              0.741
 Vibration    31          0.863              1.233              0.639
 Vibration    32          0.883              1.189              0.592
 Vibration    33          0.894              1.164              0.568
 Vibration    34          0.899              1.153              0.557
 Vibration    35          0.929              1.090              0.499
 Vibration    36          0.960              1.028              0.447
 Vibration    37          0.974              1.001              0.425

 Normal termination of Gaussian 16 at Thu Jan 30 16:33:14 2025.
