 Gaussian 16, Revision C.01,
 Gaussian 16:  ES64L-G16RevC.01  3-Jul-2019

 ----------------------------------------------------------------------
 # CAM-B3LYP/6-311G(d,p) freq scrf=(solvent=acetonitrile) empiricaldisp
 ersion=gd3bj
 ----------------------------------------------------------------------

 -
 -
 -
 Symbolic Z-matrix:
 Charge =  0 Multiplicity = 1

                         Standard orientation:
 ---------------------------------------------------------------------
 Center     Atomic      Atomic             Coordinates (Angstroms)
 Number     Number       Type             X           Y           Z
 ---------------------------------------------------------------------
      1          6           0        1.183025    1.298114   -0.224688
      2          6           0        2.512859    1.674227   -0.021392
      3          6           0        2.917866    3.004866   -0.020658
      4          6           0        1.943374    3.966130   -0.231221
      5          6           0        0.607286    3.606859   -0.445765
      6          6           0        0.219156    2.278357   -0.452540
      7          6           0        1.157576   -0.159332   -0.193058
      8          1           0        3.951685    3.289721    0.122930
      9          1           0        2.223326    5.012274   -0.240217
     10          1           0       -0.129812    4.382222   -0.616015
     11          1           0       -0.810548    2.003116   -0.639841
     12          6           0        4.695213    0.630626    0.468154
     13          1           0        5.283436    0.805644   -0.433956
     14          1           0        4.832506    1.468745    1.149043
     15          1           0        5.053851   -0.261634    0.962931
     16          6           0        2.499500   -0.586334   -0.004491
     17          6           0        3.029202   -2.006791    0.070773
     18          7           0        0.111658   -0.953258   -0.268828
     19          7           0       -0.898557   -1.670524   -0.347957
     20          6           0       -2.165629   -1.028243   -0.132172
     21          6           0       -2.330375    0.125679    0.634136
     22          6           0       -3.285244   -1.652840   -0.658917
     23          6           0       -3.588753    0.653610    0.837535
     24          1           0       -1.463660    0.591270    1.084739
     25          6           0       -4.556101   -1.122464   -0.477210
     26          1           0       -3.147017   -2.565163   -1.227061
     27          6           0       -4.710347    0.040075    0.273804
     28          1           0       -3.735276    1.542045    1.439278
     29          1           0       -5.408354   -1.621230   -0.915916
     30          8           0       -5.901516    0.639871    0.523792
     31          6           0       -7.074545    0.051505   -0.015022
     32          1           0       -7.224187   -0.960548    0.370740
     33          1           0       -7.900219    0.683667    0.301763
     34          1           0       -7.038414    0.022971   -1.107395
     35          7           0        3.278611    0.519619    0.151494
     36          6           0        1.978254   -3.030181   -0.391651
     37          1           0        1.107283   -3.068042    0.257365
     38          1           0        1.629433   -2.820054   -1.403104
     39          1           0        2.452457   -4.014481   -0.391627
     40          6           0        3.399425   -2.357119    1.524480
     41          1           0        3.757078   -3.388230    1.567047
     42          1           0        4.178110   -1.719086    1.940943
     43          1           0        2.520614   -2.276255    2.166914
     44          6           0        4.238920   -2.180156   -0.869394
     45          1           0        5.108732   -1.592839   -0.588279
     46          1           0        4.539224   -3.229493   -0.865108
     47          1           0        3.965933   -1.913980   -1.892697
 ---------------------------------------------------------------------

 SCF Done:  E(RCAM-B3LYP) =  -1015.10734844     A.U. after   16 cycles

 The electronic state is 1-A.
 Alpha  occ. eigenvalues --  -19.22348 -14.45247 -14.42347 -14.39952 -10.31063
 Alpha  occ. eigenvalues --  -10.30664 -10.29218 -10.29011 -10.28564 -10.28348
 Alpha  occ. eigenvalues --  -10.27629 -10.26194 -10.25346 -10.24902 -10.24886
 Alpha  occ. eigenvalues --  -10.24818 -10.24744 -10.24714 -10.24696 -10.24613
 Alpha  occ. eigenvalues --  -10.24472 -10.23606 -10.23417 -10.22409  -1.15479
 Alpha  occ. eigenvalues --   -1.10006  -1.08793  -0.95252  -0.94538  -0.92611
 Alpha  occ. eigenvalues --   -0.90281  -0.85932  -0.83946  -0.83707  -0.82359
 Alpha  occ. eigenvalues --   -0.81387  -0.78013  -0.77577  -0.76481  -0.73377
 Alpha  occ. eigenvalues --   -0.71055  -0.69654  -0.68207  -0.66985  -0.64273
 Alpha  occ. eigenvalues --   -0.62961  -0.61553  -0.59746  -0.57479  -0.56304
 Alpha  occ. eigenvalues --   -0.55672  -0.55467  -0.54785  -0.54416  -0.52387
 Alpha  occ. eigenvalues --   -0.52101  -0.51738  -0.51407  -0.50533  -0.50198
 Alpha  occ. eigenvalues --   -0.49719  -0.49516  -0.48285  -0.47580  -0.47243
 Alpha  occ. eigenvalues --   -0.46938  -0.46220  -0.45337  -0.44823  -0.43876
 Alpha  occ. eigenvalues --   -0.43095  -0.42981  -0.42497  -0.41638  -0.41445
 Alpha  occ. eigenvalues --   -0.40702  -0.39674  -0.39515  -0.39080  -0.37971
 Alpha  occ. eigenvalues --   -0.34195  -0.31908  -0.29345  -0.28994  -0.25680
 Alpha  occ. eigenvalues --   -0.22361
 Alpha virt. eigenvalues --   -0.02419   0.02265   0.03196   0.05476   0.07013
 Alpha virt. eigenvalues --    0.08015   0.09482   0.09844   0.10780   0.11747
 Alpha virt. eigenvalues --    0.12234   0.12760   0.13152   0.13559   0.14631

 Mulliken charges:
               1
     1  C   -0.093878
     2  C    0.199582
     3  C   -0.080676
     4  C   -0.133119
     5  C   -0.136313
     6  C   -0.077799
     7  C    0.106007
     8  H    0.130850
     9  H    0.118366
    10  H    0.116674
    11  H    0.119320
    12  C   -0.188502
    13  H    0.162063
    14  H    0.149366
    15  H    0.149864
    16  C    0.333071
    17  C   -0.295300
    18  N   -0.309676
    19  N   -0.226575
    20  C    0.022251
    21  C   -0.098477
    22  C   -0.085517
    23  C   -0.116748
    24  H    0.134236
    25  C   -0.153714
    26  H    0.105146
    27  C    0.153121
    28  H    0.120187
    29  H    0.137851
    30  O   -0.353109
    31  C   -0.157892
    32  H    0.127106
    33  H    0.141382
    34  H    0.127085
    35  N   -0.472938
    36  C   -0.251039
    37  H    0.121550
    38  H    0.117331
    39  H    0.111090
    40  C   -0.240244
    41  H    0.123871
    42  H    0.112158
    43  H    0.123270
    44  C   -0.256683
    45  H    0.117431
    46  H    0.123778
    47  H    0.124193
 Sum of Mulliken charges =  -0.00000

 Dipole moment (field-independent basis, Debye):
    X=              4.6384    Y=              1.0924    Z=              0.5520  Tot=              4.7972
 Quadrupole moment (field-independent basis, Debye-Ang):
   XX=            -88.3261   YY=           -140.7937   ZZ=           -146.6223
   XY=              3.7851   XZ=              9.5735   YZ=              0.8268

  Exact polarizability:     548.796      29.308     378.464      18.843      21.005     196.791
 Approx polarizability:     426.871      17.192     336.250      17.394      22.505     197.961

 ******    1 imaginary frequencies (negative Signs) ******

                      1                      2                      3
                      A                      A                      A
 Frequencies --   -433.0201                17.1422                37.8054
 Red. masses --     11.8569                 3.2486                 3.5884
 Frc consts  --      1.3099                 0.0006                 0.0030
 IR Inten    --     57.8535                 3.0959                 1.5917

                      4                      5                      6
                      A                      A                      A
 Frequencies --     43.8274                57.3081                73.4014
 Red. masses --      4.2835                 3.3600                 3.6533
 Frc consts  --      0.0048                 0.0065                 0.0116
 IR Inten    --      0.4663                 0.8415                 0.5166

                      7                      8                      9
                      A                      A                      A
 Frequencies --     86.4406               122.5512               126.3957
 Red. masses --      3.4832                 2.8680                 4.3546
 Frc consts  --      0.0153                 0.0254                 0.0410
 IR Inten    --      2.3899                 1.8585                 1.1331

                     10                     11                     12
                      A                      A                      A
 Frequencies --    139.7007               167.9396               183.3492
 Red. masses --      2.8357                 3.0060                 2.1678
 Frc consts  --      0.0326                 0.0500                 0.0429
 IR Inten    --      2.1054                 0.9761                 4.6654

                     13                     14                     15
                      A                      A                      A
 Frequencies --    188.6016               204.5089               222.3838
 Red. masses --      2.3990                 1.4371                 1.4120
 Frc consts  --      0.0503                 0.0354                 0.0411
 IR Inten    --     11.2933                 1.3813                 1.7679

                     16                     17                     18
                      A                      A                      A
 Frequencies --    238.4013               254.2990               263.1979
 Red. masses --      1.7204                 1.4864                 2.1507
 Frc consts  --      0.0576                 0.0566                 0.0878
 IR Inten    --      6.0717                 4.8825                 0.3532

                     19                     20                     21
                      A                      A                      A
 Frequencies --    281.5302               304.2976               318.3053
 Red. masses --      2.7546                 3.8833                 1.6787
 Frc consts  --      0.1286                 0.2119                 0.1002
 IR Inten    --      4.7036                 1.5840                 1.9262

                     22                     23                     24
                      A                      A                      A
 Frequencies --    332.9981               346.5814               358.3437
 Red. masses --      2.4132                 2.8842                 2.6465
 Frc consts  --      0.1577                 0.2041                 0.2002
 IR Inten    --      1.6380                 3.2318                 0.6455

                     25                     26                     27
                      A                      A                      A
 Frequencies --    374.8509               395.3293               418.0974
 Red. masses --      2.9126                 4.4767                 2.6837
 Frc consts  --      0.2411                 0.4122                 0.2764
 IR Inten    --      7.4032                24.0063                 1.7558

                     28                     29                     30
                      A                      A                      A
 Frequencies --    427.1246               439.6003               443.4811
 Red. masses --      2.5120                 3.2803                 4.6460
 Frc consts  --      0.2700                 0.3735                 0.5384
 IR Inten    --      2.7916                 2.7875                13.7853

                     31                     32                     33
                      A                      A                      A
 Frequencies --    467.1218               520.2694               531.8185
 Red. masses --      3.9112                 5.3258                 3.7337
 Frc consts  --      0.5028                 0.8494                 0.6222
 IR Inten    --     18.7775                 1.6537                 2.4539

                     34                     35                     36
                      A                      A                      A
 Frequencies --    542.0181               546.0879               571.9496
 Red. masses --      3.3919                 3.2340                 4.7187
 Frc consts  --      0.5871                 0.5682                 0.9095
 IR Inten    --     18.7525                44.5373                10.2143

                     37                     38                     39
                      A                      A                      A
 Frequencies --    604.4466               611.5837               648.1781
 Red. masses --      4.4142                 4.1331                 4.7939
 Frc consts  --      0.9502                 0.9108                 1.1867
 IR Inten    --     21.1597                 0.8808                 2.6768

                     40                     41                     42
                      A                      A                      A
 Frequencies --    654.0947               696.7545               728.2860
 Red. masses --      5.7160                 5.6781                 4.8920
 Frc consts  --      1.4409                 1.6241                 1.5288
 IR Inten    --      1.6661                 3.2624                22.2960

                     43                     44                     45
                      A                      A                      A
 Frequencies --    751.3180               761.2798               785.5565
 Red. masses --      2.7577                 2.9030                 2.1590
 Frc consts  --      0.9171                 0.9912                 0.7850
 IR Inten    --     22.4206                37.1286                61.9063

                     46                     47                     48
                      A                      A                      A
 Frequencies --    799.5824               808.3999               830.5029
 Red. masses --      4.4026                 3.8237                 4.9878
 Frc consts  --      1.6584                 1.4723                 2.0269
 IR Inten    --      5.0562                 8.3777                25.6131

                     49                     50                     51
                      A                      A                      A
 Frequencies --    846.1341               858.4621               872.2593
 Red. masses --      1.2592                 5.3107                 1.7882
 Frc consts  --      0.5311                 2.3059                 0.8016
 IR Inten    --      1.8767                18.9508               132.7431

                     52                     53                     54
                      A                      A                      A
 Frequencies --    891.6928               899.7223               948.9481
 Red. masses --      1.4836                 2.6946                 1.6992
 Frc consts  --      0.6950                 1.2852                 0.9016
 IR Inten    --      1.6876                 4.9882                 1.6721

                     55                     56                     57
                      A                      A                      A
 Frequencies --    955.5826               972.2785               977.3956
 Red. masses --      1.6801                 1.2052                 1.3690
 Frc consts  --      0.9039                 0.6713                 0.7705
 IR Inten    --      0.1029                 0.3942                 4.2731

                     58                     59                     60
                      A                      A                      A
 Frequencies --    988.8964              1005.2146              1017.4906
 Red. masses --      1.3743                 1.3389                 1.3082
 Frc consts  --      0.7919                 0.7971                 0.7980
 IR Inten    --      3.3509                 3.7628                 0.2328

                     61                     62                     63
                      A                      A                      A
 Frequencies --   1030.9327              1039.8751              1053.5334
 Red. masses --      2.3834                 2.3437                 1.4301
 Frc consts  --      1.4925                 1.4932                 0.9352
 IR Inten    --      0.8349                77.7998                 2.6936

                     64                     65                     66
                      A                      A                      A
 Frequencies --   1056.1399              1069.5117              1082.5983
 Red. masses --      1.9822                 2.1802                 6.3827
 Frc consts  --      1.3027                 1.4693                 4.4074
 IR Inten    --     11.9889                 6.7845               117.4060

                     67                     68                     69
                      A                      A                      A
 Frequencies --   1124.0263              1128.2749              1150.5402
 Red. masses --      1.8812                 1.2525                 1.3355
 Frc consts  --      1.4004                 0.9394                 1.0416
 IR Inten    --    187.4451                38.7480                 5.8372

                     70                     71                     72
                      A                      A                      A
 Frequencies --   1153.5395              1156.8924              1169.0863
 Red. masses --      1.6681                 1.5857                 1.4963
 Frc consts  --      1.3078                 1.2505                 1.2049
 IR Inten    --     11.2135                13.7002                75.4072

                     73                     74                     75
                      A                      A                      A
 Frequencies --   1182.3794              1192.8411              1202.2055
 Red. masses --      1.2785                 1.8935                 1.8003
 Frc consts  --      1.0530                 1.5874                 1.5330
 IR Inten    --      1.2549                26.9060               264.3825

                     76                     77                     78
                      A                      A                      A
 Frequencies --   1213.4182              1232.2341              1239.4424
 Red. masses --      1.4208                 2.5518                 2.8609
 Frc consts  --      1.2326                 2.2829                 2.5894
 IR Inten    --     31.7020               183.7646                 7.1206

                     79                     80                     81
                      A                      A                      A
 Frequencies --   1252.2927              1285.0700              1291.9766
 Red. masses --      2.9643                 2.7742                 4.7342
 Frc consts  --      2.7389                 2.6992                 4.6559
 IR Inten    --    116.4813               263.7583               460.6486

                     82                     83                     84
                      A                      A                      A
 Frequencies --   1327.4033              1340.2996              1344.8699
 Red. masses --      1.3712                 6.3129                 1.8533
 Frc consts  --      1.4235                 6.6816                 1.9750
 IR Inten    --     19.5508                30.7537               134.3578

                     85                     86                     87
                      A                      A                      A
 Frequencies --   1357.7581              1382.8659              1409.0386
 Red. masses --      5.4200                 5.7728                 1.3586
 Frc consts  --      5.8871                 6.5043                 1.5893
 IR Inten    --    111.0131                29.6921               141.7131

                     88                     89                     90
                      A                      A                      A
 Frequencies --   1412.2372              1424.7327              1437.2429
 Red. masses --      1.2799                 2.4518                 1.4364
 Frc consts  --      1.5040                 2.9322                 1.7482
 IR Inten    --     92.7294               397.8381                32.5477

                     91                     92                     93
                      A                      A                      A
 Frequencies --   1463.9195              1467.3527              1475.9786
 Red. masses --      1.9747                 3.2015                 1.2498
 Frc consts  --      2.4933                 4.0613                 1.6041
 IR Inten    --      0.2442                 3.0723                35.9099

                     94                     95                     96
                      A                      A                      A
 Frequencies --   1481.5949              1486.3939              1487.4041
 Red. masses --      1.0833                 1.1848                 1.1320
 Frc consts  --      1.4011                 1.5423                 1.4756
 IR Inten    --      6.4400                33.2000                 8.6694

                     97                     98                     99
                      A                      A                      A
 Frequencies --   1489.2914              1491.7308              1498.8929
 Red. masses --      1.0532                 1.0426                 1.1682
 Frc consts  --      1.3763                 1.3669                 1.5464
 IR Inten    --      5.4601                13.6638                37.7307

                    100                    101                    102
                      A                      A                      A
 Frequencies --   1501.9276              1506.1574              1516.5198
 Red. masses --      1.0561                 1.0753                 1.2931
 Frc consts  --      1.4036                 1.4373                 1.7521
 IR Inten    --     21.6381                63.7309                63.4188

                    103                    104                    105
                      A                      A                      A
 Frequencies --   1520.0699              1521.2425              1529.3569
 Red. masses --      1.2390                 1.5373                 1.4790
 Frc consts  --      1.6867                 2.0961                 2.0382
 IR Inten    --     35.6030                44.3445                11.7075

                    106                    107                    108
                      A                      A                      A
 Frequencies --   1537.2654              1548.2154              1654.1034
 Red. masses --      2.0995                 2.4906                 6.8615
 Frc consts  --      2.9232                 3.5174                11.0610
 IR Inten    --     78.0018               234.1472                57.1473

                    109                    110                    111
                      A                      A                      A
 Frequencies --   1663.4855              1677.7662              1682.9868
 Red. masses --      7.2697                 6.5906                 6.9640
 Frc consts  --     11.8524                10.9304                11.6217
 IR Inten    --      3.2790                75.5187                 5.1850

                    112                    113                    114
                      A                      A                      A
 Frequencies --   1799.6104              3038.3597              3057.2273
 Red. masses --     13.2409                 1.0340                 1.0380
 Frc consts  --     25.2653                 5.6243                 5.7162
 IR Inten    --    384.2917                86.4940                28.4863

                    115                    116                    117
                      A                      A                      A
 Frequencies --   3059.6696              3066.8536              3079.6229
 Red. masses --      1.0401                 1.0410                 1.0434
 Frc consts  --      5.7371                 5.7686                 5.8303
 IR Inten    --     32.2363                64.5282                74.8827

                    118                    119                    120
                      A                      A                      A
 Frequencies --   3103.2850              3122.7892              3123.9160
 Red. masses --      1.1072                 1.1018                 1.1030
 Frc consts  --      6.2822                 6.3303                 6.3420
 IR Inten    --     46.9785                 3.9363                22.9214

                    121                    122                    123
                      A                      A                      A
 Frequencies --   3129.5153              3142.0995              3149.0270
 Red. masses --      1.1007                 1.1009                 1.1019
 Frc consts  --      6.3514                 6.4037                 6.4378
 IR Inten    --    107.4226                44.0010                16.3389

                    124                    125                    126
                      A                      A                      A
 Frequencies --   3167.3805              3169.2353              3173.2283
 Red. masses --      1.1014                 1.1002                 1.0967
 Frc consts  --      6.5104                 6.5107                 6.5063
 IR Inten    --     28.7393                28.9777                31.8841

                    127                    128                    129
                      A                      A                      A
 Frequencies --   3191.7362              3197.8095              3203.0124
 Red. masses --      1.0871                 1.0899                 1.0892
 Frc consts  --      6.5249                 6.5666                 6.5836
 IR Inten    --      3.0807                11.7409                 7.6547

                    130                    131                    132
                      A                      A                      A
 Frequencies --   3205.1299              3215.9345              3220.7827
 Red. masses --      1.0909                 1.0945                 1.0947
 Frc consts  --      6.6027                 6.6691                 6.6906
 IR Inten    --     20.4868                11.7194                10.4286

                    133                    134                    135
                      A                      A                      A
 Frequencies --   3222.8415              3231.7691              3233.2392
 Red. masses --      1.0952                 1.0965                 1.0927
 Frc consts  --      6.7021                 6.7473                 6.7300
 IR Inten    --     13.3520                 9.6107                15.4551

 - Thermochemistry -
 -------------------
 Temperature   298.150 Kelvin.  Pressure   1.00000 Atm.
 Atom     1 has atomic number  6 and mass  12.00000

 Molecular mass:   321.18411 amu.
 Principal axes and moments of inertia in atomic units:
                           1         2         3
     Eigenvalues --  4429.94388********************
           X            0.99993  -0.01152   0.00412
           Y            0.01152   0.99993   0.00191
           Z           -0.00415  -0.00186   0.99999
 This molecule is an asymmetric top.
 Rotational symmetry number  1.
 Warning -- assumption of classical behavior for rotation
           may cause significant error
 Rotational temperatures (Kelvin)      0.01955     0.00624     0.00493
 Rotational constants (GHZ):           0.40740     0.12994     0.10276
    1 imaginary frequencies ignored.
 Zero-point vibrational energy    1036026.5 (Joules/Mol)
                                  247.61628 (Kcal/Mol)
 Warning -- explicit consideration of  37 degrees of freedom as
           vibrations may cause significant error
 Vibrational temperatures:     24.66    54.39    63.06    82.45   105.61
          (Kelvin)            124.37   176.32   181.86   201.00   241.63
                              263.80   271.36   294.24   319.96   343.01
                              365.88   378.68   405.06   437.82   457.97
                              479.11   498.65   515.58   539.33   568.79
                              601.55   614.54   632.49   638.07   672.08
                              748.55   765.17   779.84   785.70   822.91
                              869.66   879.93   932.58   941.10  1002.47
                             1047.84  1080.98  1095.31  1130.24  1150.42
                             1163.11  1194.91  1217.40  1235.14  1254.99
                             1282.95  1294.50  1365.32  1374.87  1398.89
                             1406.25  1422.80  1446.28  1463.94  1483.28
                             1496.15  1515.80  1519.55  1538.79  1557.62
                             1617.22  1623.34  1655.37  1659.69  1664.51
                             1682.05  1701.18  1716.23  1729.71  1745.84
                             1772.91  1783.28  1801.77  1848.93  1858.87
                             1909.84  1928.39  1934.97  1953.51  1989.64
                             2027.29  2031.89  2049.87  2067.87  2106.25
                             2111.19  2123.60  2131.68  2138.59  2140.04
                             2142.76  2146.27  2156.57  2160.94  2167.02
                             2181.93  2187.04  2188.73  2200.40  2211.78
                             2227.54  2379.89  2393.38  2413.93  2421.44
                             2589.24  4371.52  4398.67  4402.18  4412.52
                             4430.89  4464.93  4493.00  4494.62  4502.67
                             4520.78  4530.75  4557.15  4559.82  4565.57
                             4592.20  4600.93  4608.42  4611.47  4627.01
                             4633.99  4636.95  4649.79  4651.91

 Zero-point correction=                           0.394602 (Hartree/Particle)
 Thermal correction to Energy=                    0.416578
 Thermal correction to Enthalpy=                  0.417522
 Thermal correction to Gibbs Free Energy=         0.343122
 Sum of electronic and zero-point Energies=          -1014.712747
 Sum of electronic and thermal Energies=             -1014.690770
 Sum of electronic and thermal Enthalpies=           -1014.689826
 Sum of electronic and thermal Free Energies=        -1014.764226

                     E (Thermal)             CV                S
                      KCal/Mol        Cal/Mol-Kelvin    Cal/Mol-Kelvin
 Total                  261.407             86.096            156.588
 Electronic               0.000              0.000              0.000
 Translational            0.889              2.981             43.196
 Rotational               0.889              2.981             35.334
 Vibrational            259.629             80.134             78.058
 Vibration     1          0.593              1.986              6.940
 Vibration     2          0.594              1.982              5.371
 Vibration     3          0.595              1.980              5.078
 Vibration     4          0.596              1.975              4.548
 Vibration     5          0.599              1.967              4.060
 Vibration     6          0.601              1.959              3.739
 Vibration     7          0.610              1.930              3.060
 Vibration     8          0.611              1.927              3.000
 Vibration     9          0.615              1.914              2.808
 Vibration    10          0.625              1.882              2.458
 Vibration    11          0.631              1.862              2.294
 Vibration    12          0.633              1.856              2.242
 Vibration    13          0.640              1.833              2.092
 Vibration    14          0.648              1.807              1.940
 Vibration    15          0.656              1.782              1.815
 Vibration    16          0.665              1.756              1.701
 Vibration    17          0.670              1.740              1.640
 Vibration    18          0.681              1.708              1.524
 Vibration    19          0.695              1.666              1.393
 Vibration    20          0.705              1.639              1.319
 Vibration    21          0.715              1.610              1.245
 Vibration    22          0.725              1.582              1.182
 Vibration    23          0.733              1.558              1.129
 Vibration    24          0.746              1.524              1.060
 Vibration    25          0.762              1.480              0.980
 Vibration    26          0.781              1.431              0.898
 Vibration    27          0.789              1.411              0.868
 Vibration    28          0.800              1.384              0.828
 Vibration    29          0.803              1.375              0.816
 Vibration    30          0.824              1.323              0.746
 Vibration    31          0.875              1.205              0.609
 Vibration    32          0.887              1.180              0.583
 Vibration    33          0.897              1.157              0.561
 Vibration    34          0.901              1.148              0.552
 Vibration    35          0.928              1.092              0.501
 Vibration    36          0.963              1.022              0.442
 Vibration    37          0.971              1.007              0.430

 Optimization completed.
    -- Stationary point found.
 Normal termination of Gaussian 16 at Thu Jan 30 16:22:56 2025.
