 Gaussian 16, Revision C.01,
 Gaussian 16:  ES64L-G16RevC.01  3-Jul-2019

 ----------------------------------------------------------------------
 # CAM-B3LYP/6-311G(d,p) freq scrf=(solvent=acetonitrile) empiricaldisp
 ersion=gd3bj
 ----------------------------------------------------------------------

 -
 -
 -
 Symbolic Z-matrix:
 Charge =  0 Multiplicity = 1

                         Standard orientation:
 ---------------------------------------------------------------------
 Center     Atomic      Atomic             Coordinates (Angstroms)
 Number     Number       Type             X           Y           Z
 ---------------------------------------------------------------------
      1          6           0        0.930643    1.185034   -0.387957
      2          6           0        2.080677    1.710217    0.201315
      3          6           0        2.247561    3.061283    0.457063
      4          6           0        1.207104    3.903687    0.093690
      5          6           0        0.049025    3.401042   -0.500894
      6          6           0       -0.106585    2.044410   -0.745053
      7          6           0        1.164161   -0.245747   -0.490575
      8          1           0        3.145974    3.454601    0.912464
      9          1           0        1.298157    4.967100    0.275268
     10          1           0       -0.746414    4.083677   -0.772969
     11          1           0       -1.012205    1.666257   -1.193406
     12          6           0        4.252947    0.966663    1.095228
     13          1           0        4.878979    1.535120    0.407120
     14          1           0        4.057448    1.566120    1.982997
     15          1           0        4.773799    0.071018    1.394278
     16          6           0        2.472460   -0.513657    0.030541
     17          6           0        3.224653   -1.831512    0.135433
     18          7           0        0.363829   -1.202946   -0.957034
     19          7           0       -0.760605   -0.852622   -1.469468
     20          6           0       -1.983601   -0.702606   -0.941725
     21          6           0       -3.077500   -0.317079   -1.755479
     22          6           0       -2.246630   -0.898856    0.431321
     23          6           0       -4.337567   -0.155752   -1.222197
     24          1           0       -2.907633   -0.152303   -2.812605
     25          6           0       -3.527393   -0.736524    0.952023
     26          1           0       -1.433181   -1.178662    1.089380
     27          6           0       -4.584435   -0.364001    0.135337
     28          1           0       -5.165361    0.138981   -1.857112
     29          1           0       -3.675349   -0.903739    2.010851
     30          8           0       -5.881517   -0.173954    0.555532
     31          6           0       -6.153819   -0.375260    1.925541
     32          1           0       -5.580639    0.312569    2.556480
     33          1           0       -7.215942   -0.180561    2.059687
     34          1           0       -5.935957   -1.403542    2.233565
     35          7           0        2.979506    0.656670    0.455012
     36          6           0        2.479807   -3.009166   -0.509952
     37          1           0        1.527295   -3.208264   -0.026212
     38          1           0        2.288542   -2.841117   -1.568183
     39          1           0        3.115738   -3.891003   -0.408137
     40          6           0        3.413387   -2.197439    1.622781
     41          1           0        3.946611   -3.147586    1.684831
     42          1           0        3.975772   -1.464552    2.196810
     43          1           0        2.441595   -2.323468    2.103307
     44          6           0        4.572585   -1.720114   -0.608233
     45          1           0        5.245849   -0.965500   -0.211145
     46          1           0        5.083524   -2.682191   -0.547391
     47          1           0        4.401540   -1.496782   -1.662946
 ---------------------------------------------------------------------

 SCF Done:  E(RCAM-B3LYP) =  -1015.10241684     A.U. after   18 cycles

 The electronic state is 1-A.
 Alpha  occ. eigenvalues --  -19.20509 -14.47612 -14.45228 -14.37611 -10.33802
 Alpha  occ. eigenvalues --  -10.29773 -10.29470 -10.28824 -10.28679 -10.28428
 Alpha  occ. eigenvalues --  -10.28402 -10.28016 -10.26367 -10.26302 -10.25692
 Alpha  occ. eigenvalues --  -10.25667 -10.25256 -10.24232 -10.24113 -10.23561
 Alpha  occ. eigenvalues --  -10.23486 -10.22955 -10.22876 -10.22565  -1.13375
 Alpha  occ. eigenvalues --   -1.11848  -1.09826  -0.95789  -0.94889  -0.92649
 Alpha  occ. eigenvalues --   -0.90615  -0.87007  -0.84622  -0.82964  -0.82319
 Alpha  occ. eigenvalues --   -0.80735  -0.78310  -0.77224  -0.77119  -0.73670
 Alpha  occ. eigenvalues --   -0.72282  -0.69482  -0.67996  -0.67202  -0.64539
 Alpha  occ. eigenvalues --   -0.63521  -0.61468  -0.58877  -0.58363  -0.57099
 Alpha  occ. eigenvalues --   -0.56263  -0.55709  -0.55389  -0.53205  -0.53080
 Alpha  occ. eigenvalues --   -0.52715  -0.52541  -0.51596  -0.51029  -0.50775
 Alpha  occ. eigenvalues --   -0.49340  -0.48558  -0.48184  -0.47651  -0.47098
 Alpha  occ. eigenvalues --   -0.46857  -0.45715  -0.45536  -0.44886  -0.43969
 Alpha  occ. eigenvalues --   -0.43648  -0.43620  -0.42575  -0.42531  -0.41567
 Alpha  occ. eigenvalues --   -0.41230  -0.40161  -0.39741  -0.38407  -0.37172
 Alpha  occ. eigenvalues --   -0.34301  -0.30889  -0.30555  -0.30326  -0.28180
 Alpha  occ. eigenvalues --   -0.19825
 Alpha virt. eigenvalues --   -0.05988   0.01109   0.04129   0.04941   0.07494
 Alpha virt. eigenvalues --    0.08549   0.09515   0.09671   0.10550   0.11058
 Alpha virt. eigenvalues --    0.11756   0.12032   0.12820   0.13425   0.13789

 Mulliken charges:
               1
     1  C   -0.028592
     2  C    0.188754
     3  C   -0.069180
     4  C   -0.117352
     5  C   -0.127585
     6  C   -0.053979
     7  C   -0.075574
     8  H    0.140004
     9  H    0.126414
    10  H    0.123311
    11  H    0.141162
    12  C   -0.194840
    13  H    0.173869
    14  H    0.164560
    15  H    0.157224
    16  C    0.405290
    17  C   -0.315199
    18  N   -0.104088
    19  N   -0.339735
    20  C    0.084267
    21  C   -0.138671
    22  C   -0.176793
    23  C   -0.113551
    24  H    0.099047
    25  C   -0.150764
    26  H    0.102303
    27  C    0.105291
    28  H    0.107120
    29  H    0.123978
    30  O   -0.374334
    31  C   -0.152359
    32  H    0.113871
    33  H    0.132358
    34  H    0.114045
    35  N   -0.464877
    36  C   -0.237378
    37  H    0.123912
    38  H    0.122000
    39  H    0.117026
    40  C   -0.243757
    41  H    0.131256
    42  H    0.118624
    43  H    0.130546
    44  C   -0.250224
    45  H    0.121487
    46  H    0.130594
    47  H    0.130519
 Sum of Mulliken charges =  -0.00000

 Dipole moment (field-independent basis, Debye):
    X=             12.6117    Y=              2.8384    Z=              5.5274  Tot=             14.0593
 Quadrupole moment (field-independent basis, Debye-Ang):
   XX=           -121.0221   YY=           -135.4961   ZZ=           -139.7641
   XY=             -0.9231   XZ=             -1.0411   YZ=             -3.3023

  Exact polarizability:     511.287      11.940     333.379      46.015       9.852     270.597
 Approx polarizability:     391.589      -1.925     297.039      42.533      12.546     268.384

 ******    1 imaginary frequencies (negative Signs) ******

                      1                      2                      3
                      A                      A                      A
 Frequencies --   -890.8248                19.5272                27.0277
 Red. masses --     12.9914                 4.2466                 3.5388
 Frc consts  --      6.0742                 0.0010                 0.0015
 IR Inten    --    148.2834                 6.1741                 1.1474

                      4                      5                      6
                      A                      A                      A
 Frequencies --     36.5234                49.7622                65.1725
 Red. masses --      3.0105                 3.9080                 2.9277
 Frc consts  --      0.0024                 0.0057                 0.0073
 IR Inten    --      6.4861                 3.9084                 0.6349

                      7                      8                      9
                      A                      A                      A
 Frequencies --     73.7681               105.8061               123.6056
 Red. masses --      3.5100                 3.0384                 3.9578
 Frc consts  --      0.0113                 0.0200                 0.0356
 IR Inten    --      2.2603                21.4162                 3.8077

                     10                     11                     12
                      A                      A                      A
 Frequencies --    137.4571               166.2215               175.8608
 Red. masses --      2.6785                 1.6187                 1.7708
 Frc consts  --      0.0298                 0.0264                 0.0323
 IR Inten    --      3.9423                 0.6063                 0.7646

                     13                     14                     15
                      A                      A                      A
 Frequencies --    197.6297               201.1556               222.3985
 Red. masses --      1.4224                 2.3263                 3.2009
 Frc consts  --      0.0327                 0.0555                 0.0933
 IR Inten    --      5.0320                 4.0420                 4.0903

                     16                     17                     18
                      A                      A                      A
 Frequencies --    229.7253               256.6512               263.0452
 Red. masses --      2.4860                 1.3175                 2.5198
 Frc consts  --      0.0773                 0.0511                 0.1027
 IR Inten    --     33.3333                25.2827                48.9703

                     19                     20                     21
                      A                      A                      A
 Frequencies --    288.0870               315.5410               324.4117
 Red. masses --      3.1122                 3.1538                 3.3757
 Frc consts  --      0.1522                 0.1850                 0.2093
 IR Inten    --      5.7329                18.0885                11.7143

                     22                     23                     24
                      A                      A                      A
 Frequencies --    340.3179               342.1480               350.9945
 Red. masses --      2.4930                 3.0278                 1.1742
 Frc consts  --      0.1701                 0.2088                 0.0852
 IR Inten    --      6.4751                12.1969                 1.9284

                     25                     26                     27
                      A                      A                      A
 Frequencies --    364.9088               399.1544               419.6885
 Red. masses --      4.3125                 3.5342                 2.9749
 Frc consts  --      0.3383                 0.3318                 0.3087
 IR Inten    --      0.8785                22.9780                54.6123

                     28                     29                     30
                      A                      A                      A
 Frequencies --    427.7458               431.8561               438.2702
 Red. masses --      2.5334                 3.2089                 4.5535
 Frc consts  --      0.2731                 0.3526                 0.5153
 IR Inten    --     20.0577                 1.4198               318.4722

                     31                     32                     33
                      A                      A                      A
 Frequencies --    454.6033               482.4513               523.0151
 Red. masses --      4.8065                 2.9145                 3.3690
 Frc consts  --      0.5852                 0.3997                 0.5430
 IR Inten    --    505.2203                32.7869                70.5055

                     34                     35                     36
                      A                      A                      A
 Frequencies --    532.0318               537.8093               570.2144
 Red. masses --      4.1210                 3.9025                 5.0386
 Frc consts  --      0.6873                 0.6651                 0.9652
 IR Inten    --     31.1942                26.9328                36.3070

                     37                     38                     39
                      A                      A                      A
 Frequencies --    578.4308               610.8884               649.7038
 Red. masses --      4.7257                 3.8636                 4.8976
 Frc consts  --      0.9316                 0.8495                 1.2181
 IR Inten    --      8.4359                15.8055                 2.3415

                     40                     41                     42
                      A                      A                      A
 Frequencies --    663.3954               701.6028               720.4049
 Red. masses --      5.8783                 4.1792                 5.4571
 Frc consts  --      1.5242                 1.2121                 1.6687
 IR Inten    --     22.1173                59.1852                65.4337

                     43                     44                     45
                      A                      A                      A
 Frequencies --    752.1005               761.2359               791.4807
 Red. masses --      3.4257                 2.2962                 2.4186
 Frc consts  --      1.1417                 0.7840                 0.8927
 IR Inten    --     88.7339                73.7087                60.1667

                     46                     47                     48
                      A                      A                      A
 Frequencies --    796.7222               803.3619               811.8957
 Red. masses --      2.5274                 1.6868                 3.3452
 Frc consts  --      0.9452                 0.6414                 1.2992
 IR Inten    --     28.6812                24.3334                85.1124

                     49                     50                     51
                      A                      A                      A
 Frequencies --    823.6861               831.8679               856.7260
 Red. masses --      1.9001                 4.7911                 3.9019
 Frc consts  --      0.7595                 1.9534                 1.6874
 IR Inten    --     54.0112                52.2130                90.2700

                     52                     53                     54
                      A                      A                      A
 Frequencies --    896.2120               930.9282               935.9977
 Red. masses --      1.4724                 3.5672                 1.3551
 Frc consts  --      0.6968                 1.8214                 0.6995
 IR Inten    --      1.1483                51.6753                 4.4305

                     55                     56                     57
                      A                      A                      A
 Frequencies --    952.3432               959.7853               964.8046
 Red. masses --      1.6884                 1.6633                 1.2944
 Frc consts  --      0.9022                 0.9027                 0.7099
 IR Inten    --      1.8590                 0.8518                 0.1365

                     58                     59                     60
                      A                      A                      A
 Frequencies --    980.7628               982.6646              1018.6815
 Red. masses --      1.3788                 1.2079                 2.6213
 Frc consts  --      0.7814                 0.6872                 1.6027
 IR Inten    --      2.8004                 0.0931                18.2554

                     61                     62                     63
                      A                      A                      A
 Frequencies --   1025.2963              1053.8669              1057.4115
 Red. masses --      1.3167                 1.6706                 1.4562
 Frc consts  --      0.8155                 1.0932                 0.9593
 IR Inten    --      0.1057                32.6651                 2.0091

                     64                     65                     66
                      A                      A                      A
 Frequencies --   1062.2909              1083.3037              1092.3399
 Red. masses --      1.9439                 3.9278                 5.1785
 Frc consts  --      1.2924                 2.7158                 3.6406
 IR Inten    --      6.1959               123.0223               114.6257

                     67                     68                     69
                      A                      A                      A
 Frequencies --   1116.2337              1128.4845              1154.2488
 Red. masses --      1.7776                 1.3568                 1.3393
 Frc consts  --      1.3050                 1.0180                 1.0513
 IR Inten    --    449.3628                50.4121                 6.1767

                     70                     71                     72
                      A                      A                      A
 Frequencies --   1161.5098              1171.7078              1183.3871
 Red. masses --      1.4843                 1.5826                 1.2809
 Frc consts  --      1.1799                 1.2801                 1.0569
 IR Inten    --     18.4585                92.4175                 1.7097

                     73                     74                     75
                      A                      A                      A
 Frequencies --   1192.2316              1199.2860              1212.0937
 Red. masses --      1.2485                 1.7020                 1.5091
 Frc consts  --      1.0456                 1.4423                 1.3063
 IR Inten    --     38.5557               120.0605                35.0835

                     76                     77                     78
                      A                      A                      A
 Frequencies --   1222.9610              1236.3468              1238.0029
 Red. masses --      2.8376                 2.5132                 2.7411
 Frc consts  --      2.5005                 2.2633                 2.4753
 IR Inten    --    111.0708               664.5226                 5.7235

                     79                     80                     81
                      A                      A                      A
 Frequencies --   1260.4041              1268.4713              1286.4011
 Red. masses --      3.2560                 6.7443                 3.1336
 Frc consts  --      3.0475                 6.3936                 3.0552
 IR Inten    --    533.7467               111.5992               447.6672

                     82                     83                     84
                      A                      A                      A
 Frequencies --   1304.6456              1333.0405              1347.6574
 Red. masses --      3.0022                 1.4821                 1.8907
 Frc consts  --      3.0108                 1.5517                 2.0231
 IR Inten    --    175.4668                38.3564               161.3165

                     85                     86                     87
                      A                      A                      A
 Frequencies --   1372.9264              1410.1953              1414.7752
 Red. masses --      5.7726                 1.7926                 1.2360
 Frc consts  --      6.4109                 2.1004                 1.4577
 IR Inten    --    344.5325               851.4279               115.1429

                     88                     89                     90
                      A                      A                      A
 Frequencies --   1423.4542              1439.9991              1455.1434
 Red. masses --      1.8371                 1.4800                 3.0328
 Frc consts  --      2.1932                 1.8081                 3.7836
 IR Inten    --    605.2845                 5.9643               154.7356

                     91                     92                     93
                      A                      A                      A
 Frequencies --   1465.2641              1477.9979              1479.4753
 Red. masses --      1.4814                 1.1260                 1.0524
 Frc consts  --      1.8739                 1.4492                 1.3573
 IR Inten    --      8.2729                27.6743                18.4619

                     94                     95                     96
                      A                      A                      A
 Frequencies --   1483.3987              1484.5267              1487.4975
 Red. masses --      1.2877                 1.6355                 1.0440
 Frc consts  --      1.6695                 2.1236                 1.3610
 IR Inten    --     78.7002               362.1763                12.7181

                     97                     98                     99
                      A                      A                      A
 Frequencies --   1487.6336              1489.9747              1501.3335
 Red. masses --      1.2380                 1.5028                 1.3768
 Frc consts  --      1.6142                 1.9657                 1.8285
 IR Inten    --     49.2571                91.7878               105.6787

                    100                    101                    102
                      A                      A                      A
 Frequencies --   1502.8613              1509.0476              1516.9129
 Red. masses --      1.0542                 1.1610                 1.3841
 Frc consts  --      1.4029                 1.5577                 1.8765
 IR Inten    --      2.9469                72.4745               124.1349

                    103                    104                    105
                      A                      A                      A
 Frequencies --   1519.5076              1521.1624              1523.1574
 Red. masses --      1.1199                 1.9253                 1.3370
 Frc consts  --      1.5235                 2.6249                 1.8276
 IR Inten    --     47.7241               109.1947                 8.6263

                    106                    107                    108
                      A                      A                      A
 Frequencies --   1532.9005              1564.4924              1611.7043
 Red. masses --      1.8389                 3.3672                 7.1438
 Frc consts  --      2.5458                 4.8559                10.9333
 IR Inten    --     21.4406                21.1254                94.8483

                    109                    110                    111
                      A                      A                      A
 Frequencies --   1630.2043              1669.2004              1688.3881
 Red. masses --      9.0884                 7.1726                 7.1788
 Frc consts  --     14.2306                11.7746                12.0573
 IR Inten    --   1105.7852                 3.2780                59.8865

                    112                    113                    114
                      A                      A                      A
 Frequencies --   1692.1171              3018.4408              3065.4569
 Red. masses --      6.9336                 1.0352                 1.0396
 Frc consts  --     11.6969                 5.5568                 5.7558
 IR Inten    --    253.5105                85.9088                12.9919

                    115                    116                    117
                      A                      A                      A
 Frequencies --   3067.1486              3072.7963              3073.8287
 Red. masses --      1.0395                 1.0409                 1.1061
 Frc consts  --      5.7617                 5.7908                 6.1574
 IR Inten    --     30.4458                54.9072                68.7402

                    118                    119                    120
                      A                      A                      A
 Frequencies --   3088.0793              3130.8105              3131.6526
 Red. masses --      1.0422                 1.1033                 1.1027
 Frc consts  --      5.8558                 6.3715                 6.3716
 IR Inten    --     33.0139                13.1610                26.4482

                    121                    122                    123
                      A                      A                      A
 Frequencies --   3143.7728              3151.4650              3153.4632
 Red. masses --      1.0978                 1.0995                 1.1053
 Frc consts  --      6.3926                 6.4337                 6.4763
 IR Inten    --     69.0150                40.4001                 7.7791

                    124                    125                    126
                      A                      A                      A
 Frequencies --   3161.1632              3172.6744              3175.3798
 Red. masses --      1.0994                 1.1029                 1.0974
 Frc consts  --      6.4727                 6.5407                 6.5196
 IR Inten    --     35.7194                28.1905                27.7570

                    127                    128                    129
                      A                      A                      A
 Frequencies --   3186.3547              3194.0822              3199.0436
 Red. masses --      1.0874                 1.0884                 1.0883
 Frc consts  --      6.5047                 6.5421                 6.5619
 IR Inten    --     27.3030                14.7866                 4.4331

                    130                    131                    132
                      A                      A                      A
 Frequencies --   3203.0714              3212.9590              3215.7624
 Red. masses --      1.0954                 1.0931                 1.0929
 Frc consts  --      6.6214                 6.6486                 6.6591
 IR Inten    --     24.9188                18.1111                10.3960

                    133                    134                    135
                      A                      A                      A
 Frequencies --   3229.3512              3255.0426              3266.3858
 Red. masses --      1.0957                 1.0938                 1.0950
 Frc consts  --      6.7323                 6.8278                 6.8836
 IR Inten    --      7.0637                 7.0301                 6.9950

 - Thermochemistry -
 -------------------
 Temperature   298.150 Kelvin.  Pressure   1.00000 Atm.
 Atom     1 has atomic number  6 and mass  12.00000

 Molecular mass:   321.18411 amu.
 Principal axes and moments of inertia in atomic units:
                           1         2         3
     Eigenvalues --  4604.05587********************
           X            0.99990  -0.01387  -0.00215
           Y            0.01386   0.99987  -0.00837
           Z            0.00226   0.00833   0.99996
 This molecule is an asymmetric top.
 Rotational symmetry number  1.
 Warning -- assumption of classical behavior for rotation
           may cause significant error
 Rotational temperatures (Kelvin)      0.01881     0.00654     0.00553
 Rotational constants (GHZ):           0.39199     0.13632     0.11520
    1 imaginary frequencies ignored.
 Zero-point vibrational energy    1034682.0 (Joules/Mol)
                                  247.29494 (Kcal/Mol)
 Warning -- explicit consideration of  37 degrees of freedom as
           vibrations may cause significant error
 Vibrational temperatures:     28.10    38.89    52.55    71.60    93.77
          (Kelvin)            106.14   152.23   177.84   197.77   239.16
                              253.02   284.35   289.42   319.98   330.52
                              369.26   378.46   414.49   453.99   466.76
                              489.64   492.27   505.00   525.02   574.29
                              603.84   615.43   621.34   630.57   654.07
                              694.14   752.50   765.48   773.79   820.41
                              832.23   878.93   934.78   954.48  1009.45
                             1036.50  1082.10  1095.25  1138.76  1146.31
                             1155.86  1168.14  1185.10  1196.87  1232.64
                             1289.45  1339.40  1346.69  1370.21  1380.92
                             1388.14  1411.10  1413.84  1465.66  1475.17
                             1516.28  1521.38  1528.40  1558.63  1571.63
                             1606.01  1623.64  1660.71  1671.15  1685.83
                             1702.63  1715.36  1725.51  1743.93  1759.57
                             1778.83  1781.21  1813.44  1825.05  1850.84
                             1877.09  1917.95  1938.98  1975.33  2028.96
                             2035.55  2048.03  2071.84  2093.63  2108.19
                             2126.51  2128.63  2134.28  2135.90  2140.18
                             2140.37  2143.74  2160.08  2162.28  2171.18
                             2182.50  2186.23  2188.61  2191.48  2205.50
                             2250.96  2318.88  2345.50  2401.61  2429.21
                             2434.58  4342.86  4410.51  4412.94  4421.07
                             4422.55  4443.06  4504.54  4505.75  4523.19
                             4534.26  4537.13  4548.21  4564.77  4568.66
                             4584.45  4595.57  4602.71  4608.51  4622.73
                             4626.76  4646.32  4683.28  4699.60

 Zero-point correction=                           0.394090 (Hartree/Particle)
 Thermal correction to Energy=                    0.416289
 Thermal correction to Enthalpy=                  0.417233
 Thermal correction to Gibbs Free Energy=         0.341815
 Sum of electronic and zero-point Energies=          -1014.708327
 Sum of electronic and thermal Energies=             -1014.686128
 Sum of electronic and thermal Enthalpies=           -1014.685184
 Sum of electronic and thermal Free Energies=        -1014.760602

                     E (Thermal)             CV                S
                      KCal/Mol        Cal/Mol-Kelvin    Cal/Mol-Kelvin
 Total                  261.225             86.449            158.731
 Electronic               0.000              0.000              0.000
 Translational            0.889              2.981             43.196
 Rotational               0.889              2.981             35.211
 Vibrational            259.448             80.487             80.323
 Vibration     1          0.593              1.986              6.682
 Vibration     2          0.593              1.984              6.036
 Vibration     3          0.594              1.982              5.439
 Vibration     4          0.595              1.978              4.827
 Vibration     5          0.597              1.971              4.294
 Vibration     6          0.599              1.966              4.050
 Vibration     7          0.605              1.945              3.344
 Vibration     8          0.610              1.929              3.043
 Vibration     9          0.614              1.916              2.839
 Vibration    10          0.624              1.884              2.478
 Vibration    11          0.628              1.872              2.372
 Vibration    12          0.637              1.843              2.155
 Vibration    13          0.638              1.838              2.123
 Vibration    14          0.648              1.807              1.939
 Vibration    15          0.652              1.796              1.881
 Vibration    16          0.666              1.752              1.684
 Vibration    17          0.670              1.741              1.641
 Vibration    18          0.685              1.696              1.485
 Vibration    19          0.703              1.644              1.333
 Vibration    20          0.709              1.627              1.288
 Vibration    21          0.720              1.595              1.211
 Vibration    22          0.721              1.591              1.202
 Vibration    23          0.728              1.573              1.162
 Vibration    24          0.738              1.544              1.101
 Vibration    25          0.765              1.472              0.966
 Vibration    26          0.782              1.427              0.893
 Vibration    27          0.789              1.410              0.866
 Vibration    28          0.793              1.401              0.853
 Vibration    29          0.798              1.387              0.832
 Vibration    30          0.813              1.351              0.782
 Vibration    31          0.839              1.289              0.703
 Vibration    32          0.878              1.199              0.603
 Vibration    33          0.887              1.179              0.583
 Vibration    34          0.893              1.166              0.570
 Vibration    35          0.926              1.096              0.504
 Vibration    36          0.935              1.078              0.488
 Vibration    37          0.970              1.009              0.431

 Optimization completed.
    -- Stationary point found.
 Normal termination of Gaussian 16 at Thu Jan 30 16:29:38 2025.
