 Gaussian 16, Revision C.01,
 Gaussian 16:  ES64L-G16RevC.01  3-Jul-2019

 ----------------------------------------------------------------------
 # CAM-B3LYP/6-311G(d,p) freq scrf=(solvent=acetonitrile) empiricaldisp
 ersion=gd3bj
 ----------------------------------------------------------------------

 -
 -
 -
 Symbolic Z-matrix:
 Charge =  0 Multiplicity = 1

                         Standard orientation:
 ---------------------------------------------------------------------
 Center     Atomic      Atomic             Coordinates (Angstroms)
 Number     Number       Type             X           Y           Z
 ---------------------------------------------------------------------
      1          6           0       -1.125838    1.279918   -0.399426
      2          6           0       -2.245680    1.583313    0.390898
      3          6           0       -2.545307    2.888152    0.776774
      4          6           0       -1.708565    3.895336    0.330762
      5          6           0       -0.608420    3.613981   -0.489200
      6          6           0       -0.309309    2.315878   -0.862148
      7          6           0       -1.171177   -0.154201   -0.624281
      8          1           0       -3.397910    3.117209    1.401537
      9          1           0       -1.914333    4.919638    0.616516
     10          1           0        0.016207    4.427428   -0.837635
     11          1           0        0.519056    2.089946   -1.518687
     12          6           0       -4.297305    0.498245    1.187924
     13          1           0       -4.269683    0.579576    2.275646
     14          1           0       -4.786857    1.380873    0.780992
     15          1           0       -4.880163   -0.367928    0.909825
     16          6           0       -2.331268   -0.646718    0.016312
     17          6           0       -2.871865   -2.067399    0.045000
     18          7           0       -0.153766   -0.904842   -1.121168
     19          7           0        0.830310   -0.324472   -1.728220
     20          6           0        2.042635   -0.365524   -1.055837
     21          6           0        3.209807   -0.076440   -1.791922
     22          6           0        2.169222   -0.575350    0.326260
     23          6           0        4.438622   -0.044999   -1.182035
     24          1           0        3.113328    0.110184   -2.854679
     25          6           0        3.410123   -0.545672    0.944362
     26          1           0        1.280080   -0.750746    0.917314
     27          6           0        4.554270   -0.284009    0.194111
     28          1           0        5.337494    0.170715   -1.746099
     29          1           0        3.467423   -0.705977    2.011841
     30          8           0        5.807199   -0.209020    0.701624
     31          6           0        5.987514   -0.482178    2.082456
     32          1           0        5.648717   -1.490518    2.335222
     33          1           0        7.055311   -0.402420    2.269680
     34          1           0        5.456224    0.243446    2.704376
     35          7           0       -2.948780    0.415314    0.643599
     36          6           0       -1.810010   -3.076771   -0.414693
     37          1           0       -1.553405   -2.951087   -1.465224
     38          1           0       -0.892245   -2.990827    0.166969
     39          1           0       -2.216013   -4.080616   -0.280247
     40          6           0       -4.067128   -2.177248   -0.922213
     41          1           0       -4.328794   -3.230572   -1.048029
     42          1           0       -4.957701   -1.660292   -0.566076
     43          1           0       -3.805392   -1.775588   -1.902674
     44          6           0       -3.276465   -2.483410    1.472984
     45          1           0       -4.183947   -2.005192    1.832505
     46          1           0       -3.452240   -3.560943    1.491192
     47          1           0       -2.470217   -2.265583    2.176737
 ---------------------------------------------------------------------

 SCF Done:  E(RCAM-B3LYP) =  -1015.11485336     A.U. after   17 cycles

 The electronic state is 1-A.
 Alpha  occ. eigenvalues --  -19.22333 -14.45405 -14.42678 -14.40348 -10.31222
 Alpha  occ. eigenvalues --  -10.30845 -10.29203 -10.28586 -10.28579 -10.28162
 Alpha  occ. eigenvalues --  -10.27881 -10.27786 -10.25379 -10.25368 -10.24884
 Alpha  occ. eigenvalues --  -10.24790 -10.24783 -10.24771 -10.24632 -10.24519
 Alpha  occ. eigenvalues --  -10.24405 -10.23711 -10.23542 -10.22637  -1.15501
 Alpha  occ. eigenvalues --   -1.10353  -1.08780  -0.95243  -0.94453  -0.92382
 Alpha  occ. eigenvalues --   -0.90051  -0.86217  -0.83980  -0.83638  -0.81776
 Alpha  occ. eigenvalues --   -0.81012  -0.77677  -0.77329  -0.76736  -0.73660
 Alpha  occ. eigenvalues --   -0.71155  -0.69733  -0.67707  -0.66590  -0.64259
 Alpha  occ. eigenvalues --   -0.62774  -0.61476  -0.59421  -0.57328  -0.56786
 Alpha  occ. eigenvalues --   -0.55742  -0.55262  -0.54906  -0.54374  -0.52192
 Alpha  occ. eigenvalues --   -0.52146  -0.51868  -0.51410  -0.50763  -0.50506
 Alpha  occ. eigenvalues --   -0.49915  -0.49438  -0.47731  -0.47497  -0.47184
 Alpha  occ. eigenvalues --   -0.46510  -0.46024  -0.45300  -0.44840  -0.43936
 Alpha  occ. eigenvalues --   -0.43349  -0.43123  -0.42180  -0.41697  -0.41391
 Alpha  occ. eigenvalues --   -0.41021  -0.39726  -0.39450  -0.39235  -0.37680
 Alpha  occ. eigenvalues --   -0.34449  -0.32094  -0.29963  -0.29204  -0.29021
 Alpha  occ. eigenvalues --   -0.21219
 Alpha virt. eigenvalues --   -0.05829   0.01903   0.03387   0.05434   0.07138
 Alpha virt. eigenvalues --    0.07683   0.09463   0.09809   0.10630   0.11176
 Alpha virt. eigenvalues --    0.11625   0.12337   0.12743   0.13407   0.14109

 Mulliken charges:
               1
     1  C   -0.102776
     2  C    0.197013
     3  C   -0.087455
     4  C   -0.128152
     5  C   -0.131000
     6  C   -0.072009
     7  C    0.020497
     8  H    0.132749
     9  H    0.119448
    10  H    0.117110
    11  H    0.122804
    12  C   -0.186374
    13  H    0.159647
    14  H    0.150092
    15  H    0.146973
    16  C    0.318981
    17  C   -0.303138
    18  N   -0.198859
    19  N   -0.262354
    20  C    0.026923
    21  C   -0.082369
    22  C   -0.095008
    23  C   -0.118489
    24  H    0.113911
    25  C   -0.161465
    26  H    0.125928
    27  C    0.150581
    28  H    0.119530
    29  H    0.136063
    30  O   -0.350869
    31  C   -0.157506
    32  H    0.126521
    33  H    0.141391
    34  H    0.126577
    35  N   -0.460506
    36  C   -0.251858
    37  H    0.117804
    38  H    0.122757
    39  H    0.116029
    40  C   -0.238099
    41  H    0.124894
    42  H    0.113688
    43  H    0.124732
    44  C   -0.251666
    45  H    0.116784
    46  H    0.124622
    47  H    0.125900
 Sum of Mulliken charges =  -0.00000

 Dipole moment (field-independent basis, Debye):
    X=             -6.0539    Y=             -0.2349    Z=              5.4295  Tot=              8.1353
 Quadrupole moment (field-independent basis, Debye-Ang):
   XX=           -112.3999   YY=           -138.6935   ZZ=           -138.0431
   XY=              1.0049   XZ=              2.1894   YZ=             -1.6663

  Exact polarizability:     703.108     -26.901     332.277     -59.136       4.073     282.022
 Approx polarizability:     469.572       5.577     291.591     -51.358       4.168     280.058

 ******    1 imaginary frequencies (negative Signs) ******

                      1                      2                      3
                      A                      A                      A
 Frequencies --    -37.6980                20.1172                30.0898
 Red. masses --      1.7195                 5.0403                 4.1283
 Frc consts  --      0.0014                 0.0012                 0.0022
 IR Inten    --      1.3863                 9.5282                 6.5967

                      4                      5                      6
                      A                      A                      A
 Frequencies --     53.2589                58.3392                87.0748
 Red. masses --      3.2592                 3.5061                 3.6467
 Frc consts  --      0.0054                 0.0070                 0.0163
 IR Inten    --      3.3555                 0.2907                 2.0629

                      7                      8                      9
                      A                      A                      A
 Frequencies --     96.2105               128.7912               133.6553
 Red. masses --      2.0893                 4.1869                 4.2177
 Frc consts  --      0.0114                 0.0409                 0.0444
 IR Inten    --      2.3872                 2.1449                12.0177

                     10                     11                     12
                      A                      A                      A
 Frequencies --    144.9294               170.5334               194.9115
 Red. masses --      1.2497                 3.9789                 2.0487
 Frc consts  --      0.0155                 0.0682                 0.0459
 IR Inten    --      6.7914                 6.2876                 5.2110

                     13                     14                     15
                      A                      A                      A
 Frequencies --    200.7024               216.5640               231.0028
 Red. masses --      2.5585                 1.3530                 2.6163
 Frc consts  --      0.0607                 0.0374                 0.0823
 IR Inten    --     98.9151                47.8329                 0.8829

                     16                     17                     18
                      A                      A                      A
 Frequencies --    244.0317               268.9484               283.6565
 Red. masses --      1.5474                 2.5358                 3.1464
 Frc consts  --      0.0543                 0.1081                 0.1492
 IR Inten    --      2.8682                16.4023                 6.8546

                     19                     20                     21
                      A                      A                      A
 Frequencies --    295.4361               315.7721               329.1923
 Red. masses --      3.5610                 4.3934                 1.4523
 Frc consts  --      0.1831                 0.2581                 0.0927
 IR Inten    --     51.4327                36.4768                21.1269

                     22                     23                     24
                      A                      A                      A
 Frequencies --    336.4715               337.9376               345.9903
 Red. masses --      2.6107                 2.2430                 3.6044
 Frc consts  --      0.1741                 0.1509                 0.2542
 IR Inten    --     18.6289                89.5682               160.1911

                     25                     26                     27
                      A                      A                      A
 Frequencies --    395.8580               406.5054               422.2613
 Red. masses --      5.1924                 3.0718                 2.9641
 Frc consts  --      0.4794                 0.2991                 0.3114
 IR Inten    --    229.7191                52.5266                60.4614

                     28                     29                     30
                      A                      A                      A
 Frequencies --    430.5183               439.5145               449.7801
 Red. masses --      2.6953                 3.1638                 5.0983
 Frc consts  --      0.2943                 0.3601                 0.6077
 IR Inten    --     33.5359                61.2729                26.1996

                     31                     32                     33
                      A                      A                      A
 Frequencies --    498.9278               507.4034               531.5814
 Red. masses --      4.0789                 5.1685                 2.9199
 Frc consts  --      0.5982                 0.7840                 0.4861
 IR Inten    --    139.5511                 6.0868                58.8496

                     34                     35                     36
                      A                      A                      A
 Frequencies --    541.0010               557.2642               574.3079
 Red. masses --      3.4629                 3.5683                 4.8385
 Frc consts  --      0.5972                 0.6529                 0.9403
 IR Inten    --     17.7863                45.5809                41.7034

                     37                     38                     39
                      A                      A                      A
 Frequencies --    604.0422               617.5825               650.6465
 Red. masses --      3.9307                 5.4207                 5.1876
 Frc consts  --      0.8450                 1.2181                 1.2939
 IR Inten    --     72.8329               342.2603                16.5624

                     40                     41                     42
                      A                      A                      A
 Frequencies --    659.9741               717.2148               738.0605
 Red. masses --      5.1306                 5.5687                 4.0408
 Frc consts  --      1.3167                 1.6877                 1.2969
 IR Inten    --     39.2706                 5.3303                10.5474

                     43                     44                     45
                      A                      A                      A
 Frequencies --    754.7563               777.9189               783.3851
 Red. masses --      2.7332                 2.9670                 2.4589
 Frc consts  --      0.9173                 1.0579                 0.8891
 IR Inten    --     70.4752               138.8491               355.2688

                     46                     47                     48
                      A                      A                      A
 Frequencies --    790.7188               816.7584               826.1269
 Red. masses --      4.8824                 3.5639                 1.3075
 Frc consts  --      1.7986                 1.4007                 0.5258
 IR Inten    --    123.1227                43.5021                41.7665

                     49                     50                     51
                      A                      A                      A
 Frequencies --    838.8335               854.8653               876.8833
 Red. masses --      5.1372                 1.9245                 3.7156
 Frc consts  --      2.1298                 0.8287                 1.6833
 IR Inten    --    300.4495               224.6585                66.7276

                     52                     53                     54
                      A                      A                      A
 Frequencies --    892.8517               926.5311               953.2303
 Red. masses --      1.4364                 3.5657                 1.6751
 Frc consts  --      0.6747                 1.8035                 0.8968
 IR Inten    --     22.3312                74.8158                 1.3991

                     55                     56                     57
                      A                      A                      A
 Frequencies --    954.9191               960.6956               981.3296
 Red. masses --      1.3864                 1.6543                 1.2182
 Frc consts  --      0.7449                 0.8995                 0.6912
 IR Inten    --     45.9782                 0.8115                 0.2917

                     58                     59                     60
                      A                      A                      A
 Frequencies --    985.8950               992.0435              1022.1049
 Red. masses --      1.3556                 1.3198                 1.3557
 Frc consts  --      0.7763                 0.7653                 0.8345
 IR Inten    --      8.9287                 7.8953                 3.4225

                     61                     62                     63
                      A                      A                      A
 Frequencies --   1023.5174              1050.1988              1053.2720
 Red. masses --      2.2577                 1.9214                 1.4114
 Frc consts  --      1.3935                 1.2486                 0.9225
 IR Inten    --      4.5344                99.5531                 6.8060

                     64                     65                     66
                      A                      A                      A
 Frequencies --   1056.2100              1074.5709              1082.0998
 Red. masses --      1.8807                 4.0763                 4.4793
 Frc consts  --      1.2362                 2.7732                 3.0902
 IR Inten    --      8.5774               328.1526                70.8049

                     67                     68                     69
                      A                      A                      A
 Frequencies --   1110.8426              1132.6093              1149.0269
 Red. masses --      2.0798                 1.2248                 1.3558
 Frc consts  --      1.5121                 0.9257                 1.0546
 IR Inten    --    902.1850                23.4917                 7.0642

                     70                     71                     72
                      A                      A                      A
 Frequencies --   1155.7717              1170.2997              1180.1419
 Red. masses --      1.3957                 1.5073                 1.2795
 Frc consts  --      1.0985                 1.2163                 1.0499
 IR Inten    --    220.7165               206.5001                 1.6095

                     73                     74                     75
                      A                      A                      A
 Frequencies --   1182.2109              1196.7596              1209.4463
 Red. masses --      1.3388                 1.9596                 1.8765
 Frc consts  --      1.1024                 1.6536                 1.6172
 IR Inten    --     44.1149               700.9861               907.1421

                     76                     77                     78
                      A                      A                      A
 Frequencies --   1215.2828              1240.9521              1246.5991
 Red. masses --      1.6141                 2.8101                 2.8078
 Frc consts  --      1.4045                 2.5496                 2.5708
 IR Inten    --    477.8580                55.9598               119.3572

                     79                     80                     81
                      A                      A                      A
 Frequencies --   1253.4139              1279.2208              1288.4721
 Red. masses --      3.1207                 3.3083                 5.9358
 Frc consts  --      2.8887                 3.1896                 5.8060
 IR Inten    --     85.7693               201.8762               443.7531

                     82                     83                     84
                      A                      A                      A
 Frequencies --   1322.2154              1328.1890              1343.6069
 Red. masses --      2.7368                 1.3486                 3.2663
 Frc consts  --      2.8190                 1.4017                 3.4742
 IR Inten    --    688.4240                13.6327               155.1236

                     85                     86                     87
                      A                      A                      A
 Frequencies --   1362.9519              1388.3951              1402.9592
 Red. masses --      4.2844                 3.6202                 5.1726
 Frc consts  --      4.6892                 4.1116                 5.9986
 IR Inten    --     39.6667                26.9617               285.2123

                     88                     89                     90
                      A                      A                      A
 Frequencies --   1412.2451              1415.1351              1426.4285
 Red. masses --      1.3834                 1.4760                 2.2938
 Frc consts  --      1.6256                 1.7416                 2.7498
 IR Inten    --     24.1330                48.2338               162.5166

                     91                     92                     93
                      A                      A                      A
 Frequencies --   1445.4933              1472.0887              1475.5025
 Red. masses --      1.3142                 1.3850                 2.8906
 Frc consts  --      1.6178                 1.7683                 3.7078
 IR Inten    --     88.8639                 6.9781                16.2227

                     94                     95                     96
                      A                      A                      A
 Frequencies --   1477.7169              1481.5304              1484.7815
 Red. masses --      1.2271                 1.3623                 1.0706
 Frc consts  --      1.5787                 1.7617                 1.3907
 IR Inten    --     65.9428               186.3935                29.4269

                     97                     98                     99
                      A                      A                      A
 Frequencies --   1485.9667              1488.7798              1491.2670
 Red. masses --      1.0936                 1.3191                 1.0541
 Frc consts  --      1.4227                 1.7226                 1.3812
 IR Inten    --     10.3141                80.6279                10.3014

                    100                    101                    102
                      A                      A                      A
 Frequencies --   1497.6311              1502.0637              1506.9440
 Red. masses --      1.1188                 1.1225                 1.0954
 Frc consts  --      1.4784                 1.4922                 1.4656
 IR Inten    --     13.7631                28.9307                47.0440

                    103                    104                    105
                      A                      A                      A
 Frequencies --   1517.2139              1518.5800              1522.7993
 Red. masses --      1.1751                 2.2535                 1.1171
 Frc consts  --      1.5937                 3.0619                 1.5263
 IR Inten    --     16.7036                82.8498                 9.4422

                    106                    107                    108
                      A                      A                      A
 Frequencies --   1529.3236              1532.9890              1544.4149
 Red. masses --      1.4288                 2.4033                 2.5652
 Frc consts  --      1.9689                 3.3277                 3.6049
 IR Inten    --    143.4091                22.9161               223.5721

                    109                    110                    111
                      A                      A                      A
 Frequencies --   1621.3023              1651.2281              1676.0441
 Red. masses --      7.0693                 7.0117                 6.1838
 Frc consts  --     10.9484                11.2639                10.2347
 IR Inten    --     18.5867                 2.4515               285.9385

                    112                    113                    114
                      A                      A                      A
 Frequencies --   1678.7622              3038.1193              3056.2081
 Red. masses --      6.9409                 1.0342                 1.0371
 Frc consts  --     11.5251                 5.6240                 5.7075
 IR Inten    --     12.5809                93.3099                45.9388

                    115                    116                    117
                      A                      A                      A
 Frequencies --   3060.8496              3068.5120              3080.6148
 Red. masses --      1.0393                 1.0381                 1.0441
 Frc consts  --      5.7371                 5.7588                 5.8378
 IR Inten    --     19.6560                45.7237               105.5036

                    118                    119                    120
                      A                      A                      A
 Frequencies --   3102.0460              3121.4475              3122.1493
 Red. masses --      1.1070                 1.1028                 1.1021
 Frc consts  --      6.2763                 6.3306                 6.3293
 IR Inten    --     48.0466                19.7236                39.1023

                    121                    122                    123
                      A                      A                      A
 Frequencies --   3137.7700              3142.4158              3147.9993
 Red. masses --      1.1012                 1.1019                 1.1019
 Frc consts  --      6.3880                 6.4109                 6.4338
 IR Inten    --     75.5220                44.7219                17.3140

                    124                    125                    126
                      A                      A                      A
 Frequencies --   3153.7232              3166.2343              3167.8578
 Red. masses --      1.1033                 1.0978                 1.1014
 Frc consts  --      6.4653                 6.4844                 6.5123
 IR Inten    --     31.3992                38.8693                32.6702

                    127                    128                    129
                      A                      A                      A
 Frequencies --   3192.5363              3197.6432              3206.5414
 Red. masses --      1.0876                 1.0882                 1.0925
 Frc consts  --      6.5311                 6.5560                 6.6182
 IR Inten    --      7.1535                13.2223                23.4072

                    130                    131                    132
                      A                      A                      A
 Frequencies --   3213.2011              3214.0171              3224.1169
 Red. masses --      1.0942                 1.0906                 1.0950
 Frc consts  --      6.6560                 6.6374                 6.7065
 IR Inten    --     36.9123                 3.6588                14.0131

                    133                    134                    135
                      A                      A                      A
 Frequencies --   3230.4333              3234.6598              3244.0654
 Red. masses --      1.0939                 1.0940                 1.0956
 Frc consts  --      6.7257                 6.7443                 6.7931
 IR Inten    --     14.7034                10.3389                12.9048

 - Thermochemistry -
 -------------------
 Temperature   298.150 Kelvin.  Pressure   1.00000 Atm.
 Atom     1 has atomic number  6 and mass  12.00000

 Molecular mass:   321.18411 amu.
 Principal axes and moments of inertia in atomic units:
                           1         2         3
     Eigenvalues --  4916.16549********************
           X            0.99988   0.01499   0.00263
           Y           -0.01497   0.99986  -0.00797
           Z           -0.00275   0.00793   0.99996
 This molecule is an asymmetric top.
 Rotational symmetry number  1.
 Warning -- assumption of classical behavior for rotation
           may cause significant error
 Rotational temperatures (Kelvin)      0.01762     0.00670     0.00565
 Rotational constants (GHZ):           0.36710     0.13957     0.11781
    1 imaginary frequencies ignored.
 Zero-point vibrational energy    1035574.5 (Joules/Mol)
                                  247.50825 (Kcal/Mol)
 Warning -- explicit consideration of  37 degrees of freedom as
           vibrations may cause significant error
 Vibrational temperatures:     28.94    43.29    76.63    83.94   125.28
          (Kelvin)            138.43   185.30   192.30   208.52   245.36
                              280.43   288.77   311.59   332.36   351.11
                              386.96   408.12   425.07   454.33   473.63
                              484.11   486.22   497.80   569.55   584.87
                              607.54   619.42   632.36   647.13   717.85
                              730.04   764.83   778.38   801.78   826.30
                              869.08   888.56   936.14   949.56  1031.91
                             1061.90  1085.93  1119.25  1127.12  1137.67
                             1175.13  1188.61  1206.89  1229.96  1261.64
                             1284.61  1333.07  1371.49  1373.92  1382.23
                             1411.91  1418.48  1427.33  1470.58  1472.61
                             1511.00  1515.42  1519.65  1546.07  1556.90
                             1598.25  1629.57  1653.19  1662.90  1683.80
                             1697.96  1700.94  1721.87  1740.12  1748.52
                             1785.45  1793.58  1803.38  1840.51  1853.82
                             1902.37  1910.97  1933.15  1960.98  1997.59
                             2018.55  2031.91  2036.06  2052.31  2079.74
                             2118.01  2122.92  2126.11  2131.59  2136.27
                             2137.97  2142.02  2145.60  2154.76  2161.13
                             2168.16  2182.93  2184.90  2190.97  2200.36
                             2205.63  2222.07  2332.69  2375.75  2411.45
                             2415.36  4371.18  4397.20  4403.88  4414.90
                             4432.32  4463.15  4491.07  4492.08  4514.55
                             4521.24  4529.27  4537.50  4555.50  4557.84
                             4593.35  4600.70  4613.50  4623.08  4624.25
                             4638.79  4647.87  4653.95  4667.49

 Zero-point correction=                           0.394429 (Hartree/Particle)
 Thermal correction to Energy=                    0.416072
 Thermal correction to Enthalpy=                  0.417016
 Thermal correction to Gibbs Free Energy=         0.343725
 Sum of electronic and zero-point Energies=          -1014.720424
 Sum of electronic and thermal Energies=             -1014.698782
 Sum of electronic and thermal Enthalpies=           -1014.697838
 Sum of electronic and thermal Free Energies=        -1014.771128

                     E (Thermal)             CV                S
                      KCal/Mol        Cal/Mol-Kelvin    Cal/Mol-Kelvin
 Total                  261.089             85.657            154.253
 Electronic               0.000              0.000              0.000
 Translational            0.889              2.981             43.196
 Rotational               0.889              2.981             35.231
 Vibrational            259.311             79.696             75.826
 Vibration     1          0.593              1.986              6.623
 Vibration     2          0.594              1.984              5.823
 Vibration     3          0.596              1.976              4.693
 Vibration     4          0.596              1.974              4.513
 Vibration     5          0.601              1.958              3.725
 Vibration     6          0.603              1.952              3.530
 Vibration     7          0.611              1.924              2.964
 Vibration     8          0.613              1.920              2.893
 Vibration     9          0.616              1.908              2.738
 Vibration    10          0.626              1.879              2.430
 Vibration    11          0.636              1.847              2.181
 Vibration    12          0.638              1.839              2.127
 Vibration    13          0.645              1.816              1.988
 Vibration    14          0.653              1.794              1.871
 Vibration    15          0.659              1.773              1.773
 Vibration    16          0.673              1.730              1.603
 Vibration    17          0.682              1.704              1.512
 Vibration    18          0.690              1.682              1.443
 Vibration    19          0.703              1.644              1.332
 Vibration    20          0.712              1.617              1.264
 Vibration    21          0.717              1.603              1.229
 Vibration    22          0.718              1.600              1.222
 Vibration    23          0.724              1.583              1.184
 Vibration    24          0.763              1.479              0.978
 Vibration    25          0.771              1.456              0.939
 Vibration    26          0.785              1.422              0.884
 Vibration    27          0.792              1.404              0.857
 Vibration    28          0.800              1.384              0.828
 Vibration    29          0.809              1.361              0.796
 Vibration    30          0.854              1.252              0.661
 Vibration    31          0.863              1.234              0.640
 Vibration    32          0.887              1.180              0.584
 Vibration    33          0.896              1.159              0.563
 Vibration    34          0.913              1.124              0.529
 Vibration    35          0.931              1.087              0.496
 Vibration    36          0.963              1.023              0.443
 Vibration    37          0.977              0.995              0.420

 Normal termination of Gaussian 16 at Thu Jan 30 16:25:33 2025.
