 Gaussian 16, Revision C.01,
 Gaussian 16:  ES64L-G16RevC.01  3-Jul-2019

 ----------------------------------------------------------------------
 # CAM-B3LYP/6-311G(d,p) opt=modredundant scrf=(solvent=acetonitrile) E
 mpiricalDispersion=GD3BJ
 ----------------------------------------------------------------------

 ---------
 but cis-2
 ---------
 Symbolic Z-matrix:
 Charge =  0 Multiplicity = 1

 SCF Done:  E(RCAM-B3LYP) =  -1015.06622816     A.U. after   17 cycles
 SCF Done:  E(RCAM-B3LYP) =  -1015.08663813     A.U. after   19 cycles
 SCF Done:  E(RCAM-B3LYP) =  -1015.11370743     A.U. after   17 cycles
 SCF Done:  E(RCAM-B3LYP) =  -1015.13273572     A.U. after   17 cycles
 SCF Done:  E(RCAM-B3LYP) =  -1015.14207554     A.U. after   14 cycles
 SCF Done:  E(RCAM-B3LYP) =  -1015.14731459     A.U. after   14 cycles
 SCF Done:  E(RCAM-B3LYP) =  -1015.14918572     A.U. after   14 cycles
 SCF Done:  E(RCAM-B3LYP) =  -1015.15041912     A.U. after   13 cycles
 SCF Done:  E(RCAM-B3LYP) =  -1015.15087145     A.U. after   12 cycles
 SCF Done:  E(RCAM-B3LYP) =  -1015.15086979     A.U. after   12 cycles
 SCF Done:  E(RCAM-B3LYP) =  -1015.15102925     A.U. after   11 cycles
 SCF Done:  E(RCAM-B3LYP) =  -1015.15104741     A.U. after   11 cycles
 SCF Done:  E(RCAM-B3LYP) =  -1015.15105118     A.U. after   10 cycles
 SCF Done:  E(RCAM-B3LYP) =  -1015.15105334     A.U. after    9 cycles
 SCF Done:  E(RCAM-B3LYP) =  -1015.15105364     A.U. after    9 cycles
 SCF Done:  E(RCAM-B3LYP) =  -1015.15105421     A.U. after    9 cycles
 SCF Done:  E(RCAM-B3LYP) =  -1015.15105549     A.U. after   10 cycles
 SCF Done:  E(RCAM-B3LYP) =  -1015.15105626     A.U. after    9 cycles
 SCF Done:  E(RCAM-B3LYP) =  -1015.15105638     A.U. after    7 cycles
 SCF Done:  E(RCAM-B3LYP) =  -1015.15105636     A.U. after    8 cycles
 Optimization completed.
    -- Stationary point found.

                         Standard orientation:
 ---------------------------------------------------------------------
 Center     Atomic      Atomic             Coordinates (Angstroms)
 Number     Number       Type             X           Y           Z
 ---------------------------------------------------------------------
      1          6           0       -0.527498    1.113954   -0.840063
      2          6           0       -1.245098    1.837603    0.126540
      3          6           0       -0.958853    3.174148    0.407862
      4          6           0        0.064413    3.773941   -0.300383
      5          6           0        0.779965    3.069127   -1.280285
      6          6           0        0.490026    1.748702   -1.559529
      7          6           0       -1.125662   -0.193132   -0.878260
      8          1           0       -1.521678    3.732699    1.144015
      9          1           0        0.310813    4.809995   -0.102602
     10          1           0        1.569438    3.571020   -1.826168
     11          1           0        1.042561    1.218273   -2.323210
     12          6           0       -3.136909    1.517513    1.662882
     13          1           0       -2.586926    2.150760    2.357583
     14          1           0       -3.936738    2.105625    1.207198
     15          1           0       -3.575268    0.709826    2.233002
     16          6           0       -2.179142   -0.218379    0.015332
     17          6           0       -3.118102   -1.358860    0.375712
     18          7           0       -0.780984   -1.211729   -1.804770
     19          7           0        0.391656   -1.597178   -1.960640
     20          6           0        1.467390   -1.222246   -1.098250
     21          6           0        2.703527   -1.016956   -1.709552
     22          6           0        1.385087   -1.190738    0.288555
     23          6           0        3.817043   -0.708539   -0.957685
     24          1           0        2.770327   -1.090454   -2.788128
     25          6           0        2.507161   -0.916481    1.055905
     26          1           0        0.445313   -1.388026    0.784250
     27          6           0        3.725882   -0.651621    0.434132
     28          1           0        4.776323   -0.522474   -1.423117
     29          1           0        2.417419   -0.907371    2.132408
     30          8           0        4.869001   -0.349659    1.091656
     31          6           0        4.832911   -0.278412    2.509557
     32          1           0        4.557364   -1.241288    2.947338
     33          1           0        5.840394   -0.015479    2.821138
     34          1           0        4.134999    0.491313    2.848922
     35          7           0       -2.215410    1.015743    0.658012
     36          6           0       -2.912330   -2.566927   -0.548573
     37          1           0       -3.072851   -2.309284   -1.593918
     38          1           0       -1.912355   -2.989553   -0.454359
     39          1           0       -3.630715   -3.339555   -0.266666
     40          6           0       -4.587970   -0.928387    0.208460
     41          1           0       -5.237600   -1.781145    0.416241
     42          1           0       -4.887386   -0.120571    0.871532
     43          1           0       -4.772154   -0.607128   -0.818818
     44          6           0       -2.839603   -1.845391    1.810829
     45          1           0       -2.980428   -1.077990    2.569881
     46          1           0       -3.509874   -2.674306    2.049537
     47          1           0       -1.813233   -2.208972    1.893369
 ---------------------------------------------------------------------

 The electronic state is 1-A.
 Alpha  occ. eigenvalues --  -19.22773 -14.43844 -14.43700 -14.43591 -10.31691
 Alpha  occ. eigenvalues --  -10.29415 -10.29303 -10.28062 -10.27904 -10.27703
 Alpha  occ. eigenvalues --  -10.27387 -10.26650 -10.25883 -10.25650 -10.25203
 Alpha  occ. eigenvalues --  -10.24969 -10.24895 -10.24890 -10.24693 -10.24456
 Alpha  occ. eigenvalues --  -10.24055 -10.23417 -10.23228 -10.22664  -1.15957
 Alpha  occ. eigenvalues --   -1.12415  -1.08058  -0.95719  -0.94071  -0.92037
 Alpha  occ. eigenvalues --   -0.89489  -0.86448  -0.84677  -0.83329  -0.81352
 Alpha  occ. eigenvalues --   -0.80478  -0.78265  -0.77419  -0.76630  -0.73329
 Alpha  occ. eigenvalues --   -0.70841  -0.70245  -0.68493  -0.66616  -0.64448
 Alpha  occ. eigenvalues --   -0.63047  -0.61519  -0.60268  -0.57477  -0.57013
 Alpha  occ. eigenvalues --   -0.55126  -0.54842  -0.54802  -0.54702  -0.52654
 Alpha  occ. eigenvalues --   -0.51797  -0.51608  -0.51199  -0.50840  -0.50522
 Alpha  occ. eigenvalues --   -0.50033  -0.49769  -0.48080  -0.47863  -0.46920
 Alpha  occ. eigenvalues --   -0.46621  -0.46057  -0.45492  -0.45298  -0.44210
 Alpha  occ. eigenvalues --   -0.43324  -0.42944  -0.42854  -0.41308  -0.41179
 Alpha  occ. eigenvalues --   -0.40788  -0.40100  -0.39368  -0.38940  -0.38130
 Alpha  occ. eigenvalues --   -0.34261  -0.32365  -0.30794  -0.28420  -0.27774
 Alpha  occ. eigenvalues --   -0.24826
 Alpha virt. eigenvalues --   -0.02274   0.01577   0.03162   0.05495   0.06981
 Alpha virt. eigenvalues --    0.07555   0.09363   0.09733   0.10528   0.11248
 Alpha virt. eigenvalues --    0.11582   0.12075   0.13154   0.13834   0.14149

 Mulliken charges:
               1
     1  C   -0.028732
     2  C    0.200652
     3  C   -0.091504
     4  C   -0.135561
     5  C   -0.143331
     6  C   -0.055315
     7  C   -0.175734
     8  H    0.126302
     9  H    0.115580
    10  H    0.113696
    11  H    0.110855
    12  C   -0.184164
    13  H    0.142892
    14  H    0.151774
    15  H    0.143617
    16  C    0.345087
    17  C   -0.296806
    18  N   -0.162433
    19  N   -0.167370
    20  C   -0.104299
    21  C   -0.052088
    22  C   -0.012148
    23  C   -0.110856
    24  H    0.119071
    25  C   -0.160419
    26  H    0.154766
    27  C    0.165934
    28  H    0.124453
    29  H    0.139174
    30  O   -0.348359
    31  C   -0.159700
    32  H    0.129717
    33  H    0.143675
    34  H    0.130105
    35  N   -0.484094
    36  C   -0.262270
    37  H    0.125243
    38  H    0.117423
    39  H    0.116768
    40  C   -0.250076
    41  H    0.120864
    42  H    0.115622
    43  H    0.120682
    44  C   -0.242045
    45  H    0.111491
    46  H    0.121684
    47  H    0.120180
 Sum of Mulliken charges =  -0.00000

 Dipole moment (field-independent basis, Debye):
    X=             -1.8421    Y=              2.0155    Z=              7.3367  Tot=              7.8283
 Quadrupole moment (field-independent basis, Debye-Ang):
   XX=           -125.7378   YY=           -144.0392   ZZ=           -137.2839
   XY=             -0.1048   XZ=             -4.0312   YZ=             -3.4703

 Normal termination of Gaussian 16 at Fri Aug 11 15:01:17 2023.
