 Gaussian 16, Revision C.01,
 Gaussian 16:  ES64L-G16RevC.01  3-Jul-2019

 ----------------------------------------------------------------------
 # CAM-B3LYP/6-311G(d,p) opt=modredundant scrf=(solvent=acetonitrile) E
 mpiricalDispersion=GD3BJ
 ----------------------------------------------------------------------

 -----------
 but trans-2
 -----------
 Symbolic Z-matrix:
 Charge =  0 Multiplicity = 1

 SCF Done:  E(RCAM-B3LYP) =  -1015.15149920     A.U. after   14 cycles
 SCF Done:  E(RCAM-B3LYP) =  -1015.16387723     A.U. after   13 cycles
 SCF Done:  E(RCAM-B3LYP) =  -1015.16839383     A.U. after   13 cycles
 SCF Done:  E(RCAM-B3LYP) =  -1015.16971810     A.U. after   12 cycles
 SCF Done:  E(RCAM-B3LYP) =  -1015.17097247     A.U. after   12 cycles
 SCF Done:  E(RCAM-B3LYP) =  -1015.17143418     A.U. after   12 cycles
 SCF Done:  E(RCAM-B3LYP) =  -1015.17111262     A.U. after   12 cycles
 SCF Done:  E(RCAM-B3LYP) =  -1015.17164945     A.U. after   12 cycles
 SCF Done:  E(RCAM-B3LYP) =  -1015.17172325     A.U. after   10 cycles
 SCF Done:  E(RCAM-B3LYP) =  -1015.17174799     A.U. after   12 cycles
 SCF Done:  E(RCAM-B3LYP) =  -1015.17178118     A.U. after   10 cycles
 SCF Done:  E(RCAM-B3LYP) =  -1015.17178765     A.U. after   10 cycles
 SCF Done:  E(RCAM-B3LYP) =  -1015.17179041     A.U. after    9 cycles
 SCF Done:  E(RCAM-B3LYP) =  -1015.17179455     A.U. after   10 cycles
 SCF Done:  E(RCAM-B3LYP) =  -1015.17180180     A.U. after   10 cycles
 SCF Done:  E(RCAM-B3LYP) =  -1015.17180337     A.U. after   10 cycles
 SCF Done:  E(RCAM-B3LYP) =  -1015.17180367     A.U. after   10 cycles
 SCF Done:  E(RCAM-B3LYP) =  -1015.17180374     A.U. after    8 cycles
 SCF Done:  E(RCAM-B3LYP) =  -1015.17180378     A.U. after    6 cycles
 SCF Done:  E(RCAM-B3LYP) =  -1015.17180380     A.U. after    6 cycles
 Optimization completed.
    -- Stationary point found.

                         Standard orientation:
 ---------------------------------------------------------------------
 Center     Atomic      Atomic             Coordinates (Angstroms)
 Number     Number       Type             X           Y           Z
 ---------------------------------------------------------------------
      1          6           0        1.932173   -1.327885   -0.004497
      2          6           0        3.292637   -0.985674   -0.000085
      3          6           0        4.303714   -1.942303   -0.017934
      4          6           0        3.923777   -3.272568   -0.031212
      5          6           0        2.571819   -3.636222   -0.029490
      6          6           0        1.572224   -2.679679   -0.016900
      7          6           0        1.213541   -0.074434    0.001674
      8          1           0        5.349646   -1.665918   -0.025669
      9          1           0        4.685466   -4.042581   -0.045072
     10          1           0        2.305173   -4.686233   -0.040136
     11          1           0        0.529933   -2.957241   -0.018154
     12          6           0        4.724093    1.005589   -0.002635
     13          1           0        5.349128    0.521611    0.747600
     14          1           0        5.187634    0.880789   -0.983320
     15          1           0        4.679441    2.058553    0.230782
     16          6           0        2.148165    0.964379    0.007843
     17          6           0        1.948219    2.474018    0.013515
     18          7           0       -0.149249    0.133068    0.004565
     19          7           0       -0.859779   -0.899196    0.012844
     20          6           0       -2.253638   -0.650720    0.008811
     21          6           0       -3.082737   -1.771169    0.069816
     22          6           0       -2.835675    0.612930   -0.055869
     23          6           0       -4.456022   -1.635729    0.071385
     24          1           0       -2.626688   -2.752412    0.117775
     25          6           0       -4.213285    0.760634   -0.056438
     26          1           0       -2.196398    1.483143   -0.107928
     27          6           0       -5.032701   -0.366925    0.008634
     28          1           0       -5.107264   -2.499095    0.120082
     29          1           0       -4.638131    1.752817   -0.108880
     30          8           0       -6.386550   -0.327900    0.014382
     31          6           0       -7.025164    0.938543   -0.046587
     32          1           0       -6.772154    1.465921   -0.970045
     33          1           0       -8.092950    0.736230   -0.027792
     34          1           0       -6.758207    1.558706    0.813110
     35          7           0        3.403677    0.395789    0.017440
     36          6           0        0.471763    2.887678   -0.068519
     37          1           0       -0.005328    2.516742   -0.974036
     38          1           0       -0.101989    2.526827    0.781880
     39          1           0        0.433213    3.979405   -0.077726
     40          6           0        2.632751    3.104068   -1.216976
     41          1           0        2.458318    4.181890   -1.208979
     42          1           0        3.707062    2.945939   -1.261012
     43          1           0        2.197634    2.699875   -2.133278
     44          6           0        2.486327    3.066823    1.332095
     45          1           0        3.541879    2.873958    1.510585
     46          1           0        2.344128    4.149511    1.324173
     47          1           0        1.928423    2.659007    2.177256
 ---------------------------------------------------------------------

 The electronic state is 1-A.
 Alpha  occ. eigenvalues --  -19.22587 -14.44343 -14.42274 -14.41473 -10.31387
 Alpha  occ. eigenvalues --  -10.30277 -10.29328 -10.28260 -10.28017 -10.27610
 Alpha  occ. eigenvalues --  -10.26897 -10.26507 -10.25142 -10.25070 -10.24982
 Alpha  occ. eigenvalues --  -10.24937 -10.24720 -10.24627 -10.24547 -10.24300
 Alpha  occ. eigenvalues --  -10.24026 -10.23474 -10.23379 -10.22482  -1.15736
 Alpha  occ. eigenvalues --   -1.11584  -1.08511  -0.95460  -0.94077  -0.92047
 Alpha  occ. eigenvalues --   -0.89765  -0.86121  -0.84219  -0.83197  -0.81571
 Alpha  occ. eigenvalues --   -0.80761  -0.77556  -0.77218  -0.76454  -0.73253
 Alpha  occ. eigenvalues --   -0.70885  -0.70023  -0.67546  -0.65931  -0.64119
 Alpha  occ. eigenvalues --   -0.62269  -0.61460  -0.59264  -0.57468  -0.56101
 Alpha  occ. eigenvalues --   -0.55205  -0.55027  -0.54577  -0.54141  -0.52173
 Alpha  occ. eigenvalues --   -0.52022  -0.51842  -0.51245  -0.50373  -0.50098
 Alpha  occ. eigenvalues --   -0.49869  -0.49788  -0.48922  -0.47132  -0.46788
 Alpha  occ. eigenvalues --   -0.46566  -0.46117  -0.45391  -0.44786  -0.44495
 Alpha  occ. eigenvalues --   -0.43093  -0.42856  -0.42804  -0.41389  -0.41187
 Alpha  occ. eigenvalues --   -0.40494  -0.39742  -0.39723  -0.38831  -0.38739
 Alpha  occ. eigenvalues --   -0.33906  -0.32119  -0.29397  -0.28621  -0.28590
 Alpha  occ. eigenvalues --   -0.24629
 Alpha virt. eigenvalues --   -0.02821   0.02205   0.03275   0.05771   0.08052
 Alpha virt. eigenvalues --    0.08227   0.09396   0.09695   0.10587   0.11528
 Alpha virt. eigenvalues --    0.12024   0.12552   0.12945   0.13686   0.14476

 Mulliken charges:
               1
     1  C   -0.053906
     2  C    0.195539
     3  C   -0.090676
     4  C   -0.130824
     5  C   -0.135578
     6  C   -0.073561
     7  C   -0.066749
     8  H    0.128770
     9  H    0.116162
    10  H    0.113369
    11  H    0.113279
    12  C   -0.189810
    13  H    0.148764
    14  H    0.156050
    15  H    0.147501
    16  C    0.340763
    17  C   -0.306650
    18  N   -0.196185
    19  N   -0.229973
    20  C   -0.013244
    21  C   -0.078592
    22  C   -0.054254
    23  C   -0.119632
    24  H    0.123652
    25  C   -0.159751
    26  H    0.147486
    27  C    0.164216
    28  H    0.120431
    29  H    0.136658
    30  O   -0.350029
    31  C   -0.158364
    32  H    0.128704
    33  H    0.142766
    34  H    0.128669
    35  N   -0.481012
    36  C   -0.245822
    37  H    0.121179
    38  H    0.123915
    39  H    0.112371
    40  C   -0.250116
    41  H    0.121931
    42  H    0.116093
    43  H    0.122641
    44  C   -0.244453
    45  H    0.113095
    46  H    0.122552
    47  H    0.122627
 Sum of Mulliken charges =  -0.00000

 Dipole moment (field-independent basis, Debye):
    X=              3.0428    Y=              5.2451    Z=             -0.0825  Tot=              6.0643
 Quadrupole moment (field-independent basis, Debye-Ang):
   XX=           -101.4468   YY=           -130.6892   ZZ=           -149.0162
   XY=             -3.2115   XZ=              0.6342   YZ=             -0.2414

 Normal termination of Gaussian 16 at Fri Aug 11 14:29:06 2023.
