 Gaussian 16, Revision C.01,
 Gaussian 16:  ES64L-G16RevC.01  3-Jul-2019

 ----------------------------------------------------------------------
 # CAM-B3LYP/6-311G(d,p) opt=modredundant scrf=(solvent=acetonitrile) E
 mpiricalDispersion=GD3BJ
 ----------------------------------------------------------------------

 ---------
 but cis-1
 ---------
 Symbolic Z-matrix:
 Charge =  0 Multiplicity = 1

 SCF Done:  E(RCAM-B3LYP) =  -1014.77442292     A.U. after   18 cycles
 SCF Done:  E(RCAM-B3LYP) =  -1014.86419374     A.U. after   18 cycles
 SCF Done:  E(RCAM-B3LYP) =  -1014.94357626     A.U. after   16 cycles
 SCF Done:  E(RCAM-B3LYP) =  -1015.00776889     A.U. after   16 cycles
 SCF Done:  E(RCAM-B3LYP) =  -1015.05420275     A.U. after   17 cycles
 SCF Done:  E(RCAM-B3LYP) =  -1015.10546903     A.U. after   16 cycles
 SCF Done:  E(RCAM-B3LYP) =  -1015.13008434     A.U. after   15 cycles
 SCF Done:  E(RCAM-B3LYP) =  -1015.13797296     A.U. after   16 cycles
 SCF Done:  E(RCAM-B3LYP) =  -1015.13937614     A.U. after   14 cycles
 SCF Done:  E(RCAM-B3LYP) =  -1015.14296104     A.U. after   13 cycles
 SCF Done:  E(RCAM-B3LYP) =  -1015.14859845     A.U. after   10 cycles
 SCF Done:  E(RCAM-B3LYP) =  -1015.14862204     A.U. after   10 cycles
 SCF Done:  E(RCAM-B3LYP) =  -1015.14865536     A.U. after   11 cycles
 SCF Done:  E(RCAM-B3LYP) =  -1015.14865570     A.U. after    8 cycles
 SCF Done:  E(RCAM-B3LYP) =  -1015.14865067     A.U. after    9 cycles
 SCF Done:  E(RCAM-B3LYP) =  -1015.14866004     A.U. after   10 cycles
 SCF Done:  E(RCAM-B3LYP) =  -1015.14865978     A.U. after   10 cycles
 SCF Done:  E(RCAM-B3LYP) =  -1015.14866045     A.U. after    7 cycles
 SCF Done:  E(RCAM-B3LYP) =  -1015.14866052     A.U. after    7 cycles
 SCF Done:  E(RCAM-B3LYP) =  -1015.14866058     A.U. after    6 cycles
 Optimization completed.
    -- Stationary point found.

                         Standard orientation:
 ---------------------------------------------------------------------
 Center     Atomic      Atomic             Coordinates (Angstroms)
 Number     Number       Type             X           Y           Z
 ---------------------------------------------------------------------
      1          6           0        2.111124   -0.782071    0.702024
      2          6           0        2.502931   -0.615759   -0.637493
      3          6           0        3.353619   -1.528951   -1.263618
      4          6           0        3.790492   -2.610809   -0.522741
      5          6           0        3.396209   -2.792767    0.812831
      6          6           0        2.555815   -1.888816    1.431593
      7          6           0        1.231964    0.306320    0.998626
      8          1           0        3.670964   -1.400616   -2.290190
      9          1           0        4.452749   -3.333811   -0.983302
     10          1           0        3.759109   -3.653509    1.361047
     11          1           0        2.248378   -2.027765    2.461069
     12          6           0        2.124957    0.957622   -2.490415
     13          1           0        3.039516    1.545423   -2.593059
     14          1           0        2.204816    0.073563   -3.121089
     15          1           0        1.285560    1.538917   -2.851685
     16          6           0        1.149235    1.121951   -0.105801
     17          6           0        0.442230    2.456949   -0.284779
     18          7           0        0.680150    0.418709    2.314614
     19          7           0       -0.514734    0.185145    2.550716
     20          6           0       -1.463200   -0.195591    1.548266
     21          6           0       -2.728199    0.376140    1.686933
     22          6           0       -1.252796   -1.139565    0.549021
     23          6           0       -3.736842    0.079051    0.795770
     24          1           0       -2.900411    1.070705    2.499864
     25          6           0       -2.273746   -1.473461   -0.328200
     26          1           0       -0.300161   -1.639240    0.454851
     27          6           0       -3.514792   -0.847258   -0.224839
     28          1           0       -4.713927    0.536840    0.878925
     29          1           0       -2.087710   -2.218822   -1.087566
     30          8           0       -4.560587   -1.086521   -1.046158
     31          6           0       -4.390703   -2.021193   -2.102784
     32          1           0       -4.166008   -3.018353   -1.716130
     33          1           0       -5.338023   -2.045072   -2.634769
     34          1           0       -3.597910   -1.704921   -2.785322
     35          7           0        1.911639    0.527917   -1.119606
     36          6           0       -0.052561    2.999974    1.064029
     37          1           0       -0.879513    2.420837    1.465646
     38          1           0        0.747798    3.027399    1.805062
     39          1           0       -0.412800    4.019411    0.916535
     40          6           0        1.415746    3.518086   -0.834073
     41          1           0        1.774329    3.308401   -1.837814
     42          1           0        0.908080    4.484158   -0.865620
     43          1           0        2.282879    3.614782   -0.176998
     44          6           0       -0.782971    2.304918   -1.204407
     45          1           0       -0.522757    1.977953   -2.210742
     46          1           0       -1.483620    1.579765   -0.788094
     47          1           0       -1.297082    3.265110   -1.291071
 ---------------------------------------------------------------------

 The electronic state is 1-A.
 Alpha  occ. eigenvalues --  -19.22980 -14.44483 -14.44331 -14.43401 -10.32001
 Alpha  occ. eigenvalues --  -10.29515 -10.29055 -10.28066 -10.27965 -10.27874
 Alpha  occ. eigenvalues --  -10.27301 -10.26511 -10.26173 -10.25992 -10.25402
 Alpha  occ. eigenvalues --  -10.25182 -10.24893 -10.24798 -10.24676 -10.24476
 Alpha  occ. eigenvalues --  -10.24050 -10.23151 -10.23109 -10.22845  -1.16186
 Alpha  occ. eigenvalues --   -1.12992  -1.07808  -0.96000  -0.94058  -0.91909
 Alpha  occ. eigenvalues --   -0.89597  -0.86616  -0.84927  -0.83336  -0.81115
 Alpha  occ. eigenvalues --   -0.80577  -0.78400  -0.77246  -0.76793  -0.73490
 Alpha  occ. eigenvalues --   -0.70967  -0.70188  -0.68607  -0.66690  -0.64600
 Alpha  occ. eigenvalues --   -0.63291  -0.61347  -0.60434  -0.57771  -0.57038
 Alpha  occ. eigenvalues --   -0.55070  -0.54934  -0.54846  -0.54575  -0.52792
 Alpha  occ. eigenvalues --   -0.52229  -0.51378  -0.51027  -0.50811  -0.50465
 Alpha  occ. eigenvalues --   -0.50223  -0.49858  -0.48425  -0.48238  -0.47122
 Alpha  occ. eigenvalues --   -0.46821  -0.46094  -0.45677  -0.45146  -0.44495
 Alpha  occ. eigenvalues --   -0.43142  -0.43002  -0.42899  -0.41190  -0.41077
 Alpha  occ. eigenvalues --   -0.40492  -0.40035  -0.39312  -0.38813  -0.38536
 Alpha  occ. eigenvalues --   -0.34498  -0.32625  -0.30948  -0.28518  -0.28051
 Alpha  occ. eigenvalues --   -0.25005
 Alpha virt. eigenvalues --   -0.02279   0.01839   0.02543   0.05794   0.06292
 Alpha virt. eigenvalues --    0.07948   0.09372   0.09892   0.10626   0.10794
 Alpha virt. eigenvalues --    0.11436   0.12288   0.12705   0.13600   0.13915

 Mulliken charges:
               1
     1  C   -0.048429
     2  C    0.209291
     3  C   -0.093498
     4  C   -0.136308
     5  C   -0.137838
     6  C   -0.074644
     7  C   -0.199237
     8  H    0.125499
     9  H    0.115750
    10  H    0.114516
    11  H    0.104443
    12  C   -0.185312
    13  H    0.150227
    14  H    0.140966
    15  H    0.143065
    16  C    0.369025
    17  C   -0.291610
    18  N   -0.152429
    19  N   -0.159792
    20  C   -0.077984
    21  C   -0.051564
    22  C   -0.013813
    23  C   -0.125367
    24  H    0.126516
    25  C   -0.171800
    26  H    0.151117
    27  C    0.181490
    28  H    0.125825
    29  H    0.141697
    30  O   -0.346043
    31  C   -0.160509
    32  H    0.131373
    33  H    0.144660
    34  H    0.130900
    35  N   -0.487851
    36  C   -0.276454
    37  H    0.116789
    38  H    0.125932
    39  H    0.120884
    40  C   -0.255723
    41  H    0.116543
    42  H    0.119896
    43  H    0.120929
    44  C   -0.240260
    45  H    0.107673
    46  H    0.133281
    47  H    0.118178
 Sum of Mulliken charges =  -0.00000

 Dipole moment (field-independent basis, Debye):
    X=             -1.3058    Y=             -0.1064    Z=             -7.8256  Tot=              7.9345
 Quadrupole moment (field-independent basis, Debye-Ang):
   XX=           -140.9055   YY=           -131.7798   ZZ=           -142.4720
   XY=              2.9101   XZ=             -3.3330   YZ=              1.5104

 Normal termination of Gaussian 16 at Fri Aug 11 16:02:33 2023.
