 Gaussian 16, Revision C.01,
 Gaussian 16:  ES64L-G16RevC.01  3-Jul-2019

 ----------------------------------------------------------------------
 # opt CAM-B3LYP/6-311G(d,p) scrf=(solvent=acetonitrile) EmpiricalDispe
 rsion=GD3BJ
 ----------------------------------------------------------------------

 -
 -
 -
 Symbolic Z-matrix:
 Charge =  0 Multiplicity = 1

 SCF Done:  E(RCAM-B3LYP) =  -857.946630525     A.U. after   15 cycles
 SCF Done:  E(RCAM-B3LYP) =  -857.931508841     A.U. after   13 cycles
 SCF Done:  E(RCAM-B3LYP) =  -857.945258240     A.U. after   13 cycles
 SCF Done:  E(RCAM-B3LYP) =  -857.946672385     A.U. after    9 cycles
 SCF Done:  E(RCAM-B3LYP) =  -857.946598111     A.U. after   13 cycles
 SCF Done:  E(RCAM-B3LYP) =  -857.946797119     A.U. after   12 cycles
 SCF Done:  E(RCAM-B3LYP) =  -857.946850910     A.U. after   12 cycles
 SCF Done:  E(RCAM-B3LYP) =  -857.946857482     A.U. after    9 cycles
 SCF Done:  E(RCAM-B3LYP) =  -857.946858492     A.U. after    9 cycles
 SCF Done:  E(RCAM-B3LYP) =  -857.946858707     A.U. after    9 cycles
 SCF Done:  E(RCAM-B3LYP) =  -857.946858863     A.U. after    9 cycles
 SCF Done:  E(RCAM-B3LYP) =  -857.946859038     A.U. after    9 cycles
 SCF Done:  E(RCAM-B3LYP) =  -857.946859127     A.U. after    8 cycles
 SCF Done:  E(RCAM-B3LYP) =  -857.946859184     A.U. after    8 cycles
 SCF Done:  E(RCAM-B3LYP) =  -857.946859218     A.U. after    6 cycles
 SCF Done:  E(RCAM-B3LYP) =  -857.946859239     A.U. after    8 cycles
 Optimization completed.
    -- Stationary point found.

                         Standard orientation:
 ---------------------------------------------------------------------
 Center     Atomic      Atomic             Coordinates (Angstroms)
 Number     Number       Type             X           Y           Z
 ---------------------------------------------------------------------
      1          6           0        1.430856    0.122110   -0.452415
      2          6           0        2.600703    0.770277    0.006391
      3          6           0        2.770731    2.151151   -0.047886
      4          6           0        1.748048    2.899471   -0.595652
      5          6           0        0.590148    2.280082   -1.085814
      6          6           0        0.424128    0.910353   -1.024104
      7          6           0        1.664856   -1.296817   -0.244395
      8          6           0        2.938166   -1.408302    0.271343
      9          1           0        3.675621    2.619657    0.317602
     10          1           0        1.845612    3.976409   -0.655086
     11          1           0       -0.193001    2.888789   -1.521083
     12          1           0       -0.478060    0.462939   -1.413449
     13          1           0        3.468184   -2.311599    0.529268
     14          7           0        3.489297   -0.186640    0.459285
     15          6           0        4.802217    0.086250    1.010037
     16          1           0        4.719367    0.702261    1.906323
     17          1           0        5.275297   -0.856808    1.272407
     18          1           0        5.424132    0.602675    0.277539
     19          7           0        0.993568   -2.494949   -0.532635
     20          7           0       -0.241400   -2.649622   -0.601104
     21          6           0       -1.173567   -1.648403   -0.203838
     22          6           0       -1.101863   -1.007400    1.034463
     23          6           0       -2.273079   -1.425977   -1.018904
     24          6           0       -2.092156   -0.128132    1.416492
     25          1           0       -0.269677   -1.202407    1.698066
     26          6           0       -3.257853   -0.515758   -0.657530
     27          1           0       -2.346479   -1.961901   -1.957278
     28          6           0       -3.166955    0.141373    0.566404
     29          1           0       -2.052813    0.375049    2.374181
     30          1           0       -4.089070   -0.342351   -1.325439
     31          8           0       -4.072504    1.039222    1.023797
     32          6           0       -5.182391    1.354160    0.196978
     33          1           0       -4.857386    1.780925   -0.755597
     34          1           0       -5.800543    0.472130    0.010102
     35          1           0       -5.763341    2.092308    0.743821
 ---------------------------------------------------------------------

 The electronic state is 1-A.
 Alpha  occ. eigenvalues --  -19.22603 -14.44733 -14.43750 -14.42586 -10.31462
 Alpha  occ. eigenvalues --  -10.29342 -10.29125 -10.28572 -10.28542 -10.27540
 Alpha  occ. eigenvalues --  -10.27186 -10.25757 -10.25633 -10.25519 -10.25228
 Alpha  occ. eigenvalues --  -10.25140 -10.24937 -10.24826 -10.24766 -10.24306
 Alpha  occ. eigenvalues --   -1.15773  -1.11839  -1.09174  -0.95637  -0.94339
 Alpha  occ. eigenvalues --   -0.90772  -0.86462  -0.84407  -0.84000  -0.82265
 Alpha  occ. eigenvalues --   -0.80741  -0.78331  -0.73361  -0.70680  -0.70207
 Alpha  occ. eigenvalues --   -0.69022  -0.66074  -0.64039  -0.62377  -0.60275
 Alpha  occ. eigenvalues --   -0.57415  -0.57056  -0.56414  -0.55156  -0.54697
 Alpha  occ. eigenvalues --   -0.54395  -0.52557  -0.51699  -0.51031  -0.50288
 Alpha  occ. eigenvalues --   -0.49947  -0.49458  -0.48204  -0.47712  -0.47142
 Alpha  occ. eigenvalues --   -0.46323  -0.45251  -0.44584  -0.43191  -0.42588
 Alpha  occ. eigenvalues --   -0.41668  -0.40835  -0.39866  -0.38389  -0.34607
 Alpha  occ. eigenvalues --   -0.32040  -0.30570  -0.29181  -0.28324  -0.25091
 Alpha virt. eigenvalues --   -0.02166   0.01937   0.02684   0.05704   0.06363
 Alpha virt. eigenvalues --    0.08526   0.09233   0.10498   0.11185   0.12049
 Alpha virt. eigenvalues --    0.12211   0.12959   0.13617   0.15277   0.15428

 Mulliken charges:
               1
     1  C   -0.092653
     2  C    0.209053
     3  C   -0.075621
     4  C   -0.130987
     5  C   -0.140720
     6  C   -0.057038
     7  C   -0.115015
     8  C    0.177074
     9  H    0.129799
    10  H    0.118902
    11  H    0.114624
    12  H    0.130075
    13  H    0.142828
    14  N   -0.430240
    15  C   -0.166673
    16  H    0.147914
    17  H    0.143081
    18  H    0.147779
    19  N   -0.184092
    20  N   -0.189844
    21  C   -0.084225
    22  C   -0.034625
    23  C   -0.074480
    24  C   -0.106480
    25  H    0.135821
    26  C   -0.149690
    27  H    0.116815
    28  C    0.163635
    29  H    0.123487
    30  H    0.141049
    31  O   -0.350365
    32  C   -0.159351
    33  H    0.128595
    34  H    0.128835
    35  H    0.142734
 Sum of Mulliken charges =  -0.00000

 Dipole moment (field-independent basis, Debye):
    X=              2.3587    Y=              4.5662    Z=              1.4633  Tot=              5.3437
 Quadrupole moment (field-independent basis, Debye-Ang):
   XX=            -70.7347   YY=           -126.8111   ZZ=           -116.0728
   XY=             -3.9633   XZ=             16.9410   YZ=             -4.9642

 Normal termination of Gaussian 16 at Wed Aug 30 16:01:31 2023.
