 Gaussian 16, Revision C.01,
 Gaussian 16:  ES64L-G16RevC.01  3-Jul-2019

 ----------------------------------------------------------------------
 # opt=modredundant cam-b3lyp/6-311g(d,p) scrf=(solvent=acetonitrile) e
 mpiricaldispersion=gd3bj
 ----------------------------------------------------------------------

 -
 -
 -
 Symbolic Z-matrix:
 Charge =  0 Multiplicity = 1

 SCF Done:  E(RCAM-B3LYP) =  -857.965983717     A.U. after   14 cycles
 SCF Done:  E(RCAM-B3LYP) =  -857.965990745     A.U. after    9 cycles
 SCF Done:  E(RCAM-B3LYP) =  -857.965994162     A.U. after    8 cycles
 SCF Done:  E(RCAM-B3LYP) =  -857.965994295     A.U. after    6 cycles
 Optimization completed.
    -- Stationary point found.

                         Standard orientation:
 ---------------------------------------------------------------------
 Center     Atomic      Atomic             Coordinates (Angstroms)
 Number     Number       Type             X           Y           Z
 ---------------------------------------------------------------------
      1          6           0       -2.676053   -0.588016   -0.000023
      2          6           0       -3.825811    0.226872   -0.000002
      3          6           0       -5.113986   -0.304213    0.000027
      4          6           0       -5.231564   -1.680926    0.000024
      5          6           0       -4.096922   -2.509385   -0.000005
      6          6           0       -2.822321   -1.977827   -0.000028
      7          6           0       -1.548316    0.303982   -0.000038
      8          6           0       -2.054376    1.588052   -0.000022
      9          1           0       -5.989295    0.332845    0.000056
     10          1           0       -6.216979   -2.130316    0.000046
     11          1           0       -4.228990   -3.584548   -0.000006
     12          1           0       -1.950665   -2.620296   -0.000048
     13          1           0       -1.526824    2.527252   -0.000030
     14          7           0       -3.412243    1.546483   -0.000012
     15          6           0       -4.298153    2.694412    0.000101
     16          1           0       -4.930471    2.687663    0.888980
     17          1           0       -3.698572    3.601222   -0.000297
     18          1           0       -4.931097    2.687313   -0.888326
     19          7           0       -0.232262   -0.129691   -0.000074
     20          7           0        0.634661    0.771133   -0.000095
     21          6           0        1.973111    0.318946   -0.000045
     22          6           0        2.360046   -1.026654    0.000056
     23          6           0        2.953088    1.301559   -0.000102
     24          6           0        3.693653   -1.362495    0.000096
     25          1           0        1.597447   -1.792722    0.000100
     26          6           0        4.302618    0.974240   -0.000065
     27          1           0        2.641832    2.338754   -0.000179
     28          6           0        4.677597   -0.365666    0.000036
     29          1           0        4.011930   -2.397416    0.000174
     30          1           0        5.041207    1.762499   -0.000115
     31          8           0        5.956993   -0.803431    0.000082
     32          6           0        6.999555    0.160976    0.000027
     33          1           0        6.955942    0.789716   -0.892970
     34          1           0        6.955916    0.789848    0.892929
     35          1           0        7.928585   -0.402995    0.000083
 ---------------------------------------------------------------------

 The electronic state is 1-A.
 Alpha  occ. eigenvalues --  -19.22822 -14.44865 -14.43104 -14.42356 -10.31691
 Alpha  occ. eigenvalues --  -10.29416 -10.28951 -10.28516 -10.28236 -10.27215
 Alpha  occ. eigenvalues --  -10.26540 -10.25502 -10.25309 -10.25225 -10.25073
 Alpha  occ. eigenvalues --  -10.25005 -10.24956 -10.24847 -10.24654 -10.24346
 Alpha  occ. eigenvalues --   -1.15999  -1.12243  -1.09002  -0.95755  -0.94249
 Alpha  occ. eigenvalues --   -0.90722  -0.86484  -0.84338  -0.83824  -0.81583
 Alpha  occ. eigenvalues --   -0.81217  -0.77684  -0.73560  -0.70474  -0.70135
 Alpha  occ. eigenvalues --   -0.67195  -0.66731  -0.63719  -0.61643  -0.59882
 Alpha  occ. eigenvalues --   -0.57935  -0.56741  -0.55132  -0.55114  -0.54735
 Alpha  occ. eigenvalues --   -0.54422  -0.52397  -0.51178  -0.50716  -0.50646
 Alpha  occ. eigenvalues --   -0.50289  -0.50028  -0.48142  -0.47798  -0.47083
 Alpha  occ. eigenvalues --   -0.46695  -0.45040  -0.45002  -0.43221  -0.42499
 Alpha  occ. eigenvalues --   -0.41081  -0.40853  -0.39872  -0.39391  -0.34517
 Alpha  occ. eigenvalues --   -0.32333  -0.29825  -0.29551  -0.29048  -0.24875
 Alpha virt. eigenvalues --   -0.03402   0.02226   0.03010   0.05660   0.07686
 Alpha virt. eigenvalues --    0.08737   0.09403   0.09921   0.11034   0.11597
 Alpha virt. eigenvalues --    0.12483   0.13451   0.14800   0.14888   0.15288

 Mulliken charges:
               1
     1  C   -0.111143
     2  C    0.206406
     3  C   -0.071841
     4  C   -0.135740
     5  C   -0.135158
     6  C   -0.074043
     7  C   -0.058398
     8  C    0.163246
     9  H    0.128047
    10  H    0.118335
    11  H    0.116853
    12  H    0.109444
    13  H    0.139957
    14  N   -0.430594
    15  C   -0.165730
    16  H    0.147574
    17  H    0.142421
    18  H    0.147565
    19  N   -0.184687
    20  N   -0.213922
    21  C   -0.009514
    22  C   -0.047028
    23  C   -0.072561
    24  C   -0.117599
    25  H    0.122480
    26  C   -0.154588
    27  H    0.115358
    28  C    0.162278
    29  H    0.124653
    30  H    0.140296
    31  O   -0.346889
    32  C   -0.158958
    33  H    0.129941
    34  H    0.129941
    35  H    0.143598
 Sum of Mulliken charges =  -0.00000

 Dipole moment (field-independent basis, Debye):
    X=             -0.9374    Y=              4.5765    Z=              0.0002  Tot=              4.6716
 Quadrupole moment (field-independent basis, Debye-Ang):
   XX=            -69.8961   YY=            -99.9035   ZZ=           -122.7767
   XY=             -4.5575   XZ=             -0.0011   YZ=             -0.0001

 Normal termination of Gaussian 16 at Mon Jul 31 17:31:34 2023.
