 Gaussian 16, Revision C.01,
 Gaussian 16:  ES64L-G16RevC.01  3-Jul-2019

 ----------------------------------------------------------------------
 # opt=modredundant cam-b3lyp/6-311g(d,p) scrf=(solvent=acetonitrile) e
 mpiricaldispersion=gd3bj
 ----------------------------------------------------------------------

 -
 -
 -
 Symbolic Z-matrix:
 Charge =  0 Multiplicity = 1

 SCF Done:  E(RCAM-B3LYP) =  -857.947952677     A.U. after   14 cycles
 SCF Done:  E(RCAM-B3LYP) =  -857.947621388     A.U. after   12 cycles
 SCF Done:  E(RCAM-B3LYP) =  -857.948040530     A.U. after   11 cycles
 SCF Done:  E(RCAM-B3LYP) =  -857.948060447     A.U. after   10 cycles
 SCF Done:  E(RCAM-B3LYP) =  -857.948090328     A.U. after   10 cycles
 SCF Done:  E(RCAM-B3LYP) =  -857.948093272     A.U. after    8 cycles
 SCF Done:  E(RCAM-B3LYP) =  -857.948093487     A.U. after    8 cycles
 SCF Done:  E(RCAM-B3LYP) =  -857.948093766     A.U. after    9 cycles
 SCF Done:  E(RCAM-B3LYP) =  -857.948093909     A.U. after    9 cycles
 Optimization completed.
    -- Stationary point found.

                         Standard orientation:
 ---------------------------------------------------------------------
 Center     Atomic      Atomic             Coordinates (Angstroms)
 Number     Number       Type             X           Y           Z
 ---------------------------------------------------------------------
      1          6           0        2.580328   -0.488263   -0.059931
      2          6           0        2.701478    0.908923    0.017988
      3          6           0        3.936357    1.553523    0.020479
      4          6           0        5.062917    0.757322   -0.057683
      5          6           0        4.962144   -0.641488   -0.135910
      6          6           0        3.733582   -1.272395   -0.137824
      7          6           0        1.168603   -0.789642   -0.037328
      8          6           0        0.514815    0.434925    0.051934
      9          1           0        4.014281    2.631544    0.080464
     10          1           0        6.042095    1.220027   -0.058620
     11          1           0        5.867775   -1.232749   -0.195783
     12          1           0        3.656650   -2.350418   -0.197872
     13          1           0       -0.531910    0.675817    0.093955
     14          7           0        1.424024    1.437566    0.084770
     15          6           0        1.114358    2.852068    0.176937
     16          1           0        1.489811    3.380790   -0.699902
     17          1           0        0.035171    2.972768    0.229574
     18          1           0        1.564048    3.279914    1.073590
     19          7           0        0.769102   -2.123025   -0.109899
     20          7           0       -0.407605   -2.538338   -0.092928
     21          6           0       -1.496832   -1.616507    0.017103
     22          6           0       -1.981277   -1.257181    1.272549
     23          6           0       -2.115870   -1.131080   -1.122140
     24          6           0       -3.046713   -0.385329    1.378243
     25          1           0       -1.508757   -1.653268    2.163113
     26          6           0       -3.188603   -0.251486   -1.023186
     27          1           0       -1.749667   -1.427398   -2.097533
     28          6           0       -3.652829    0.131611    0.231556
     29          1           0       -3.432367   -0.088643    2.345344
     30          1           0       -3.649375    0.120426   -1.926854
     31          8           0       -4.688220    0.982771    0.440470
     32          6           0       -5.334326    1.542443   -0.692095
     33          1           0       -4.638083    2.132310   -1.294475
     34          1           0       -5.787846    0.766387   -1.314468
     35          1           0       -6.113523    2.192240   -0.302043
 ---------------------------------------------------------------------

 The electronic state is 1-A.
 Alpha  occ. eigenvalues --  -19.22514 -14.45317 -14.44148 -14.42469 -10.31425
 Alpha  occ. eigenvalues --  -10.29883 -10.29339 -10.28715 -10.28451 -10.27667
 Alpha  occ. eigenvalues --  -10.27284 -10.25684 -10.25660 -10.25395 -10.25307
 Alpha  occ. eigenvalues --  -10.25253 -10.25153 -10.24921 -10.24812 -10.24496
 Alpha  occ. eigenvalues --   -1.15681  -1.12123  -1.09467  -0.95819  -0.94511
 Alpha  occ. eigenvalues --   -0.90674  -0.86406  -0.84555  -0.84135  -0.81903
 Alpha  occ. eigenvalues --   -0.81312  -0.78365  -0.73622  -0.70931  -0.70298
 Alpha  occ. eigenvalues --   -0.68640  -0.66871  -0.64226  -0.62387  -0.60242
 Alpha  occ. eigenvalues --   -0.57951  -0.57339  -0.56038  -0.55345  -0.55000
 Alpha  occ. eigenvalues --   -0.54535  -0.52607  -0.51407  -0.51159  -0.50480
 Alpha  occ. eigenvalues --   -0.49973  -0.49434  -0.48300  -0.48035  -0.47406
 Alpha  occ. eigenvalues --   -0.47032  -0.45458  -0.44217  -0.43206  -0.42634
 Alpha  occ. eigenvalues --   -0.41044  -0.41007  -0.39937  -0.38436  -0.34373
 Alpha  occ. eigenvalues --   -0.32654  -0.30796  -0.29314  -0.27106  -0.26861
 Alpha virt. eigenvalues --   -0.01996   0.01887   0.03076   0.04530   0.05585
 Alpha virt. eigenvalues --    0.08320   0.09395   0.10512   0.10936   0.11981
 Alpha virt. eigenvalues --    0.12431   0.13414   0.13985   0.15332   0.15653

 Mulliken charges:
               1
     1  C   -0.085543
     2  C    0.202714
     3  C   -0.069320
     4  C   -0.134893
     5  C   -0.130488
     6  C   -0.072350
     7  C   -0.084514
     8  C    0.187484
     9  H    0.128755
    10  H    0.119705
    11  H    0.118607
    12  H    0.104524
    13  H    0.173886
    14  N   -0.439955
    15  C   -0.166866
    16  H    0.150158
    17  H    0.143091
    18  H    0.149809
    19  N   -0.188671
    20  N   -0.166351
    21  C   -0.154595
    22  C   -0.030588
    23  C   -0.031515
    24  C   -0.120189
    25  H    0.117762
    26  C   -0.161258
    27  H    0.117286
    28  C    0.169310
    29  H    0.125422
    30  H    0.142392
    31  O   -0.352694
    32  C   -0.159325
    33  H    0.127305
    34  H    0.128400
    35  H    0.142505
 Sum of Mulliken charges =  -0.00000

 Dipole moment (field-independent basis, Debye):
    X=             -1.9998    Y=              8.5266    Z=             -1.0654  Tot=              8.8225
 Quadrupole moment (field-independent basis, Debye-Ang):
   XX=           -102.5578   YY=           -117.0347   ZZ=           -113.8167
   XY=             -0.8457   XZ=              8.4938   YZ=             -2.2530

 Normal termination of Gaussian 16 at Mon Jul 31 17:35:57 2023.
