 Gaussian 16, Revision C.01,
 Gaussian 16:  ES64L-G16RevC.01  3-Jul-2019

 ----------------------------------------------------------------------
 # CAM-B3LYP/6-311G(d,p) td(nstates=20, singlets) scrf=(solvent=acetoni
 trile) EmpiricalDispersion=GD3BJ
 ----------------------------------------------------------------------

 -
 -
 -
 Symbolic Z-matrix:
 Charge =  0 Multiplicity = 1

                         Standard orientation:
 ---------------------------------------------------------------------
 Center     Atomic      Atomic             Coordinates (Angstroms)
 Number     Number       Type             X           Y           Z
 ---------------------------------------------------------------------
      1          6           0        2.078621    1.430530    0.079151
      2          6           0        3.390958    0.972462   -0.100123
      3          6           0        4.463271    1.855418   -0.234140
      4          6           0        4.187068    3.208772   -0.176868
      5          6           0        2.876834    3.680468    0.002572
      6          6           0        1.817637    2.802514    0.122943
      7          6           0        1.246169    0.263610    0.137392
      8          1           0        5.478322    1.504691   -0.366832
      9          1           0        4.999426    3.919217   -0.270378
     10          1           0        2.698622    4.748149    0.043954
     11          1           0        0.804453    3.162366    0.251590
     12          6           0        4.579441   -1.157688   -0.395107
     13          1           0        5.170001   -0.594853   -1.116559
     14          1           0        5.179162   -1.313704    0.503115
     15          1           0        4.346578   -2.116072   -0.842620
     16          6           0        2.061155   -0.859708    0.067006
     17          6           0        1.749543   -2.333640    0.312769
     18          7           0       -0.136975    0.442796    0.238212
     19          7           0       -0.842244   -0.286034   -0.484845
     20          6           0       -2.239326   -0.097027   -0.346781
     21          6           0       -3.042082   -0.739234   -1.288975
     22          6           0       -2.838046    0.654552    0.659676
     23          6           0       -4.414614   -0.614976   -1.242335
     24          1           0       -2.564830   -1.330139   -2.060955
     25          6           0       -4.215269    0.781941    0.719098
     26          1           0       -2.212177    1.135429    1.398749
     27          6           0       -5.011756    0.148091   -0.237090
     28          1           0       -5.050761   -1.102131   -1.969895
     29          1           0       -4.659206    1.366144    1.512106
     30          8           0       -6.361311    0.209287   -0.263911
     31          6           0       -7.026284    0.968689    0.736113
     32          1           0       -6.732855    2.020544    0.694087
     33          1           0       -8.087768    0.880674    0.520333
     34          1           0       -6.824066    0.570991    1.733723
     35          7           0        3.366967   -0.406512   -0.111727
     36          6           0        0.372642   -2.530039    0.968112
     37          1           0        0.251129   -1.891638    1.845720
     38          1           0       -0.440752   -2.329791    0.278856
     39          1           0        0.292843   -3.568843    1.292646
     40          6           0        1.753319   -3.114801   -1.012378
     41          1           0        2.713955   -3.075472   -1.526497
     42          1           0        1.521074   -4.165257   -0.821330
     43          1           0        0.994209   -2.712420   -1.684814
     44          6           0        2.760677   -2.939301    1.309464
     45          1           0        3.774504   -3.008556    0.928729
     46          1           0        2.782310   -2.356614    2.233106
     47          1           0        2.442325   -3.952554    1.559976
 ---------------------------------------------------------------------

 SCF Done:  E(RCAM-B3LYP) =  -1015.16157102     A.U. after   16 cycles

 Excitation energies and oscillator strengths:

 Excited State   1:      Singlet-A      2.8180 eV  439.97 nm  f=0.1045  <S**2>=0.000
      83 -> 87         0.50340
      85 -> 87         0.10349
      86 -> 87        -0.45209
 This state for optimization and/or second-order correction.
 Total Energy, E(TD-HF/TD-DFT) =  -1015.05801135
 Copying the excited state density for this state as the 1-particle RhoCI density.

 Excited State   2:      Singlet-A      3.6560 eV  339.13 nm  f=0.5323  <S**2>=0.000
      81 -> 87        -0.12989
      83 -> 87         0.40884
      85 -> 87         0.13008
      86 -> 87         0.52258

 Excited State   3:      Singlet-A      4.4856 eV  276.41 nm  f=0.1980  <S**2>=0.000
      84 -> 87         0.34946
      85 -> 87         0.53785
      85 -> 88        -0.11771
      86 -> 88         0.19097

 Excited State   4:      Singlet-A      4.6418 eV  267.10 nm  f=0.0645  <S**2>=0.000
      83 -> 87         0.11052
      84 -> 87         0.54724
      85 -> 87        -0.22100
      86 -> 88        -0.31442

 Excited State   5:      Singlet-A      4.8378 eV  256.28 nm  f=0.1611  <S**2>=0.000
      82 -> 87         0.13075
      84 -> 87         0.18528
      84 -> 88         0.10500
      84 -> 89        -0.12171
      85 -> 87        -0.30837
      86 -> 88         0.53902

 Excited State   6:      Singlet-A      4.8812 eV  254.00 nm  f=0.0395  <S**2>=0.000
      82 -> 87         0.42904
      82 -> 91         0.12066
      84 -> 88        -0.11975
      84 -> 89        -0.30796
      86 -> 88        -0.10967
      86 -> 89         0.39407

 Excited State   7:      Singlet-A      5.0859 eV  243.78 nm  f=0.0348  <S**2>=0.000
      84 -> 90        -0.14026
      85 -> 87         0.13866
      85 -> 88         0.55145
      85 -> 89        -0.12083
      86 -> 90        -0.32421

 Excited State   8:      Singlet-A      5.6409 eV  219.79 nm  f=0.1940  <S**2>=0.000
      82 -> 87         0.48428
      83 -> 89         0.16565
      86 -> 89        -0.45264

 Excited State   9:      Singlet-A      5.9810 eV  207.30 nm  f=0.6270  <S**2>=0.000
      81 -> 87        -0.22726
      83 -> 89        -0.22131
      84 -> 89         0.15252
      84 -> 90         0.10354
      85 -> 88         0.26668
      86 -> 90         0.48684

 Excited State  10:      Singlet-A      6.0367 eV  205.39 nm  f=0.1291  <S**2>=0.000
      81 -> 87         0.22021
      82 -> 87        -0.17247
      83 -> 88         0.17557
      83 -> 89         0.36267
      84 -> 88        -0.10705
      84 -> 89        -0.28546
      85 -> 88         0.21966
      86 -> 90         0.27698

 Excited State  11:      Singlet-A      6.0767 eV  204.03 nm  f=0.0977  <S**2>=0.000
      81 -> 87         0.55031
      82 -> 87         0.11014
      83 -> 87         0.10423
      83 -> 88        -0.18782
      83 -> 89        -0.19708
      84 -> 89         0.20646

 Excited State  12:      Singlet-A      6.1748 eV  200.79 nm  f=0.0336  <S**2>=0.000
      81 -> 87         0.13863
      83 -> 88         0.53797
      83 -> 89        -0.15690
      84 -> 88         0.13856
      85 -> 90         0.26262
      86 -> 90        -0.14229

 Excited State  13:      Singlet-A      6.4020 eV  193.67 nm  f=0.0129  <S**2>=0.000
      82 -> 89        -0.30905
      83 -> 89        -0.12888
      83 -> 91        -0.12915
      84 -> 88        -0.12794
      84 -> 91        -0.22643
      86 -> 91         0.48210

 Excited State  14:      Singlet-A      6.4716 eV  191.58 nm  f=0.0953  <S**2>=0.000
      81 -> 88         0.20017
      83 -> 88        -0.26801
      83 -> 89         0.12602
      83 -> 91        -0.10215
      84 -> 88         0.25899
      85 -> 90         0.46568
      86 -> 88        -0.12813
      86 -> 91         0.11171

 Excited State  15:      Singlet-A      6.4735 eV  191.53 nm  f=0.0100  <S**2>=0.000
      81 -> 89        -0.14409
      83 -> 89         0.34917
      84 -> 89         0.38496
      85 -> 89         0.21543
      86 -> 89         0.30619
      86 -> 91         0.13736

 Excited State  16:      Singlet-A      6.7155 eV  184.63 nm  f=0.0870  <S**2>=0.000
      80 -> 87         0.41014
      82 -> 89        -0.22160
      83 -> 91         0.23980
      84 -> 88        -0.14448
      85 -> 90         0.22913
      86 -> 91        -0.19581

 Excited State  17:      Singlet-A      6.7509 eV  183.66 nm  f=0.0557  <S**2>=0.000
      84 -> 88         0.23475
      85 -> 90        -0.14194
      86 -> 92         0.59420

 Excited State  18:      Singlet-A      6.7808 eV  182.85 nm  f=0.3376  <S**2>=0.000
      80 -> 87         0.17400
      82 -> 89        -0.19670
      84 -> 88         0.44897
      84 -> 89        -0.10558
      85 -> 90        -0.26443
      86 -> 92        -0.29193

 Excited State  19:      Singlet-A      6.8780 eV  180.26 nm  f=0.0925  <S**2>=0.000
      77 -> 87        -0.20095
      80 -> 87         0.42772
      82 -> 89         0.30072
      83 -> 91        -0.28827
      84 -> 91         0.11255

 Excited State  20:      Singlet-A      7.0291 eV  176.39 nm  f=0.1863  <S**2>=0.000
      71 -> 87        -0.21351
      77 -> 87         0.42547
      79 -> 87         0.13779
      82 -> 89         0.29630
      83 -> 91         0.14699
      86 -> 91         0.24986

 The electronic state is 1-A.
 Alpha  occ. eigenvalues --  -19.22937 -14.43737 -14.43198 -14.43146 -10.31928
 Alpha  occ. eigenvalues --  -10.29583 -10.29480 -10.28053 -10.27741 -10.27338
 Alpha  occ. eigenvalues --  -10.27332 -10.26456 -10.25686 -10.25656 -10.25285
 Alpha  occ. eigenvalues --  -10.24952 -10.24862 -10.24590 -10.24462 -10.24403
 Alpha  occ. eigenvalues --  -10.23998 -10.23247 -10.23083 -10.22411  -1.16128
 Alpha  occ. eigenvalues --   -1.12605  -1.07987  -0.95893  -0.94023  -0.91743
 Alpha  occ. eigenvalues --   -0.89867  -0.86323  -0.84672  -0.83253  -0.81304
 Alpha  occ. eigenvalues --   -0.80701  -0.77402  -0.77243  -0.76492  -0.73516
 Alpha  occ. eigenvalues --   -0.70962  -0.70078  -0.67014  -0.66680  -0.64256
 Alpha  occ. eigenvalues --   -0.62640  -0.61187  -0.59589  -0.57589  -0.56800
 Alpha  occ. eigenvalues --   -0.55270  -0.54823  -0.54637  -0.54036  -0.52557
 Alpha  occ. eigenvalues --   -0.52260  -0.51287  -0.50988  -0.50740  -0.50538
 Alpha  occ. eigenvalues --   -0.50386  -0.49809  -0.48569  -0.47496  -0.47173
 Alpha  occ. eigenvalues --   -0.46666  -0.46051  -0.45947  -0.45056  -0.44328
 Alpha  occ. eigenvalues --   -0.43366  -0.42809  -0.42777  -0.41152  -0.40932
 Alpha  occ. eigenvalues --   -0.40500  -0.39964  -0.39325  -0.38830  -0.38126
 Alpha  occ. eigenvalues --   -0.34322  -0.32527  -0.30093  -0.28920  -0.28105
 Alpha  occ. eigenvalues --   -0.24970
 Alpha virt. eigenvalues --   -0.03075   0.02145   0.02923   0.05927   0.07635
 Alpha virt. eigenvalues --    0.08092   0.09367   0.09829   0.10633   0.11079
 Alpha virt. eigenvalues --    0.11644   0.11944   0.12933   0.13606   0.13703

 Mulliken charges:
               1
     1  C   -0.069956
     2  C    0.196432
     3  C   -0.089772
     4  C   -0.136664
     5  C   -0.140076
     6  C   -0.067983
     7  C   -0.073688
     8  H    0.126197
     9  H    0.115264
    10  H    0.114008
    11  H    0.103650
    12  C   -0.190994
    13  H    0.143800
    14  H    0.153781
    15  H    0.146504
    16  C    0.346103
    17  C   -0.281447
    18  N   -0.191470
    19  N   -0.199908
    20  C   -0.018030
    21  C   -0.061348
    22  C   -0.037567
    23  C   -0.119366
    24  H    0.121845
    25  C   -0.157646
    26  H    0.122839
    27  C    0.168231
    28  H    0.124401
    29  H    0.142997
    30  O   -0.346161
    31  C   -0.159321
    32  H    0.130899
    33  H    0.144416
    34  H    0.130874
    35  N   -0.484554
    36  C   -0.282141
    37  H    0.118910
    38  H    0.132077
    39  H    0.114452
    40  C   -0.237171
    41  H    0.108975
    42  H    0.118770
    43  H    0.119395
    44  C   -0.260601
    45  H    0.117514
    46  H    0.123568
    47  H    0.119968
 Sum of Mulliken charges =  -0.00000

 Dipole moment (field-independent basis, Debye):
    X=              0.7337    Y=             -1.9780    Z=              1.2272  Tot=              2.4406
 Quadrupole moment (field-independent basis, Debye-Ang):
   XX=           -101.4613   YY=           -135.4751   ZZ=           -144.1509
   XY=            -16.8480   XZ=            -12.0278   YZ=              3.7353

 Normal termination of Gaussian 16 at Wed Dec 18 00:53:34 2024.
