 Gaussian 16, Revision C.01,
 Gaussian 16:  ES64L-G16RevC.01  3-Jul-2019

 ----------------------------------------------------------------------
 # CAM-B3LYP/6-311G(d,p) td(nstates=20, singlets) scrf=(solvent=acetoni
 trile) EmpiricalDispersion=GD3BJ
 ----------------------------------------------------------------------

 -
 -
 -
 Symbolic Z-matrix:
 Charge =  0 Multiplicity = 1

                         Standard orientation:
 ---------------------------------------------------------------------
 Center     Atomic      Atomic             Coordinates (Angstroms)
 Number     Number       Type             X           Y           Z
 ---------------------------------------------------------------------
      1          6           0       -0.527498    1.113954   -0.840063
      2          6           0       -1.245098    1.837603    0.126540
      3          6           0       -0.958853    3.174148    0.407862
      4          6           0        0.064413    3.773941   -0.300383
      5          6           0        0.779965    3.069127   -1.280285
      6          6           0        0.490026    1.748702   -1.559529
      7          6           0       -1.125662   -0.193132   -0.878260
      8          1           0       -1.521678    3.732699    1.144015
      9          1           0        0.310813    4.809995   -0.102602
     10          1           0        1.569438    3.571020   -1.826168
     11          1           0        1.042561    1.218273   -2.323210
     12          6           0       -3.136909    1.517513    1.662882
     13          1           0       -2.586926    2.150760    2.357583
     14          1           0       -3.936738    2.105625    1.207198
     15          1           0       -3.575268    0.709826    2.233002
     16          6           0       -2.179142   -0.218379    0.015332
     17          6           0       -3.118102   -1.358860    0.375712
     18          7           0       -0.780984   -1.211729   -1.804770
     19          7           0        0.391656   -1.597178   -1.960640
     20          6           0        1.467390   -1.222246   -1.098250
     21          6           0        2.703527   -1.016956   -1.709552
     22          6           0        1.385087   -1.190738    0.288555
     23          6           0        3.817043   -0.708539   -0.957685
     24          1           0        2.770327   -1.090454   -2.788128
     25          6           0        2.507161   -0.916481    1.055905
     26          1           0        0.445313   -1.388026    0.784250
     27          6           0        3.725882   -0.651621    0.434132
     28          1           0        4.776323   -0.522474   -1.423117
     29          1           0        2.417419   -0.907371    2.132408
     30          8           0        4.869001   -0.349659    1.091656
     31          6           0        4.832911   -0.278412    2.509557
     32          1           0        4.557364   -1.241288    2.947338
     33          1           0        5.840394   -0.015479    2.821138
     34          1           0        4.134999    0.491313    2.848922
     35          7           0       -2.215410    1.015743    0.658012
     36          6           0       -2.912330   -2.566927   -0.548573
     37          1           0       -3.072851   -2.309284   -1.593918
     38          1           0       -1.912355   -2.989553   -0.454359
     39          1           0       -3.630715   -3.339555   -0.266666
     40          6           0       -4.587970   -0.928387    0.208460
     41          1           0       -5.237600   -1.781145    0.416241
     42          1           0       -4.887386   -0.120571    0.871532
     43          1           0       -4.772154   -0.607128   -0.818818
     44          6           0       -2.839603   -1.845391    1.810829
     45          1           0       -2.980428   -1.077990    2.569881
     46          1           0       -3.509874   -2.674306    2.049537
     47          1           0       -1.813233   -2.208972    1.893369
 ---------------------------------------------------------------------

 SCF Done:  E(RCAM-B3LYP) =  -1015.15105636     A.U. after   15 cycles

 Excitation energies and oscillator strengths:

 Excited State   1:      Singlet-A      2.6741 eV  463.65 nm  f=0.0541  <S**2>=0.000
      83 -> 87         0.33418
      84 -> 87         0.10104
      86 -> 87         0.58805
 This state for optimization and/or second-order correction.
 Total Energy, E(TD-HF/TD-DFT) =  -1015.05278636
 Copying the excited state density for this state as the 1-particle RhoCI density.

 Excited State   2:      Singlet-A      3.9564 eV  313.38 nm  f=0.0749  <S**2>=0.000
      81 -> 87         0.17140
      83 -> 87         0.38725
      84 -> 87         0.20800
      85 -> 87        -0.36302
      86 -> 87        -0.33697

 Excited State   3:      Singlet-A      4.3658 eV  283.99 nm  f=0.2164  <S**2>=0.000
      83 -> 87         0.32649
      85 -> 87         0.54179
      86 -> 87        -0.14529
      86 -> 88        -0.17123

 Excited State   4:      Singlet-A      4.5546 eV  272.22 nm  f=0.0743  <S**2>=0.000
      83 -> 87         0.19747
      84 -> 87        -0.24798
      85 -> 87         0.10310
      86 -> 88         0.57978

 Excited State   5:      Singlet-A      4.7666 eV  260.11 nm  f=0.1908  <S**2>=0.000
      83 -> 87        -0.17102
      84 -> 87         0.56576
      85 -> 87         0.14656
      86 -> 88         0.28546

 Excited State   6:      Singlet-A      4.8302 eV  256.69 nm  f=0.0024  <S**2>=0.000
      82 -> 87        -0.27513
      84 -> 88         0.15884
      84 -> 89         0.11026
      85 -> 88        -0.26113
      85 -> 89        -0.21401
      86 -> 89         0.47504

 Excited State   7:      Singlet-A      5.0395 eV  246.02 nm  f=0.0377  <S**2>=0.000
      84 -> 87        -0.12385
      84 -> 88         0.40075
      84 -> 89        -0.16187
      84 -> 90        -0.11050
      85 -> 88         0.32611
      85 -> 89        -0.17563
      85 -> 90         0.11033
      86 -> 90         0.29807

 Excited State   8:      Singlet-A      5.4745 eV  226.47 nm  f=0.0357  <S**2>=0.000
      82 -> 87         0.44477
      83 -> 89         0.11279
      85 -> 88         0.10979
      85 -> 89         0.14161
      86 -> 88         0.13994
      86 -> 89         0.45376

 Excited State   9:      Singlet-A      5.6811 eV  218.24 nm  f=0.1643  <S**2>=0.000
      81 -> 87         0.11317
      82 -> 87        -0.22621
      83 -> 88        -0.10285
      84 -> 88        -0.17196
      85 -> 88         0.47054
      86 -> 89         0.15704
      86 -> 90        -0.33204

 Excited State  10:      Singlet-A      5.7816 eV  214.45 nm  f=0.1015  <S**2>=0.000
      81 -> 87         0.27169
      82 -> 87         0.32047
      84 -> 88         0.17281
      85 -> 88        -0.11530
      85 -> 89        -0.25406
      86 -> 89        -0.11439
      86 -> 90        -0.31823
      86 -> 91        -0.18658

 Excited State  11:      Singlet-A      5.8750 eV  211.04 nm  f=0.2240  <S**2>=0.000
      81 -> 87         0.21256
      83 -> 88        -0.22601
      84 -> 88        -0.35776
      84 -> 89         0.16302
      85 -> 89        -0.15340
      86 -> 90         0.37607
      86 -> 91        -0.10247

 Excited State  12:      Singlet-A      5.9988 eV  206.68 nm  f=0.0436  <S**2>=0.000
      81 -> 87         0.42625
      83 -> 87        -0.14892
      84 -> 89        -0.14113
      84 -> 90         0.13658
      85 -> 89         0.16110
      85 -> 90        -0.10347
      85 -> 91        -0.13832
      86 -> 91         0.34860

 Excited State  13:      Singlet-A      6.0443 eV  205.13 nm  f=0.1938  <S**2>=0.000
      81 -> 87        -0.23890
      82 -> 87         0.16270
      83 -> 88        -0.18771
      84 -> 89         0.10843
      85 -> 89        -0.28090
      85 -> 90        -0.20523
      86 -> 91         0.42627

 Excited State  14:      Singlet-A      6.2517 eV  198.32 nm  f=0.0520  <S**2>=0.000
      81 -> 88         0.10960
      83 -> 88         0.52125
      83 -> 89         0.22651
      84 -> 89         0.21090
      85 -> 89        -0.20747

 Excited State  15:      Singlet-A      6.3897 eV  194.04 nm  f=0.2067  <S**2>=0.000
      84 -> 88         0.27839
      84 -> 89         0.33424
      84 -> 90        -0.15986
      84 -> 91         0.11126
      85 -> 89         0.32522
      85 -> 90        -0.31466

 Excited State  16:      Singlet-A      6.4279 eV  192.88 nm  f=0.0358  <S**2>=0.000
      82 -> 88        -0.13644
      82 -> 89        -0.13118
      83 -> 88         0.10036
      84 -> 89        -0.14220
      85 -> 90        -0.16039
      85 -> 91        -0.11936
      86 -> 91        -0.14811
      86 -> 92         0.54783
      86 -> 98         0.10856

 Excited State  17:      Singlet-A      6.4677 eV  191.70 nm  f=0.0324  <S**2>=0.000
      80 -> 87        -0.14038
      82 -> 88         0.14169
      82 -> 89         0.15464
      83 -> 89        -0.24139
      84 -> 89         0.19417
      84 -> 90         0.18663
      84 -> 91        -0.12205
      85 -> 88         0.11015
      85 -> 90         0.25320
      85 -> 91         0.12137
      86 -> 92         0.33577

 Excited State  18:      Singlet-A      6.5732 eV  188.62 nm  f=0.0827  <S**2>=0.000
      80 -> 87         0.11058
      81 -> 89         0.12185
      82 -> 88        -0.11878
      83 -> 88        -0.12461
      83 -> 89         0.36522
      84 -> 89         0.22901
      84 -> 90         0.29686
      85 -> 90         0.16580
      85 -> 91        -0.17517
      86 -> 96        -0.14974

 Excited State  19:      Singlet-A      6.5921 eV  188.08 nm  f=0.0802  <S**2>=0.000
      80 -> 87        -0.13683
      82 -> 88         0.20736
      82 -> 89         0.16580
      83 -> 88        -0.17857
      83 -> 89         0.39838
      84 -> 89        -0.22745
      84 -> 90        -0.16048
      85 -> 88        -0.16727
      85 -> 91         0.11795
      86 -> 92         0.13865

 Excited State  20:      Singlet-A      6.7380 eV  184.01 nm  f=0.1846  <S**2>=0.000
      82 -> 88         0.25223
      82 -> 89         0.15189
      83 -> 90         0.15251
      84 -> 89        -0.15917
      84 -> 90         0.33342
      85 -> 90        -0.26842
      85 -> 91        -0.15794
      86 -> 91        -0.20166
      86 -> 93         0.10921
      86 -> 96        -0.11469

 The electronic state is 1-A.
 Alpha  occ. eigenvalues --  -19.22773 -14.43844 -14.43700 -14.43591 -10.31691
 Alpha  occ. eigenvalues --  -10.29415 -10.29303 -10.28062 -10.27904 -10.27703
 Alpha  occ. eigenvalues --  -10.27387 -10.26650 -10.25883 -10.25650 -10.25203
 Alpha  occ. eigenvalues --  -10.24969 -10.24895 -10.24890 -10.24693 -10.24456
 Alpha  occ. eigenvalues --  -10.24055 -10.23417 -10.23228 -10.22664  -1.15957
 Alpha  occ. eigenvalues --   -1.12415  -1.08058  -0.95719  -0.94071  -0.92037
 Alpha  occ. eigenvalues --   -0.89489  -0.86448  -0.84677  -0.83329  -0.81352
 Alpha  occ. eigenvalues --   -0.80478  -0.78265  -0.77419  -0.76630  -0.73329
 Alpha  occ. eigenvalues --   -0.70841  -0.70245  -0.68493  -0.66616  -0.64448
 Alpha  occ. eigenvalues --   -0.63047  -0.61519  -0.60268  -0.57477  -0.57013
 Alpha  occ. eigenvalues --   -0.55126  -0.54842  -0.54802  -0.54702  -0.52654
 Alpha  occ. eigenvalues --   -0.51797  -0.51608  -0.51199  -0.50840  -0.50522
 Alpha  occ. eigenvalues --   -0.50033  -0.49769  -0.48080  -0.47863  -0.46920
 Alpha  occ. eigenvalues --   -0.46621  -0.46057  -0.45492  -0.45298  -0.44210
 Alpha  occ. eigenvalues --   -0.43324  -0.42944  -0.42854  -0.41308  -0.41179
 Alpha  occ. eigenvalues --   -0.40788  -0.40100  -0.39368  -0.38940  -0.38130
 Alpha  occ. eigenvalues --   -0.34261  -0.32365  -0.30794  -0.28420  -0.27774
 Alpha  occ. eigenvalues --   -0.24826
 Alpha virt. eigenvalues --   -0.02274   0.01577   0.03162   0.05495   0.06981
 Alpha virt. eigenvalues --    0.07555   0.09363   0.09733   0.10528   0.11248
 Alpha virt. eigenvalues --    0.11582   0.12075   0.13154   0.13834   0.14149

 Mulliken charges:
               1
     1  C   -0.028731
     2  C    0.200651
     3  C   -0.091504
     4  C   -0.135562
     5  C   -0.143331
     6  C   -0.055315
     7  C   -0.175734
     8  H    0.126302
     9  H    0.115580
    10  H    0.113696
    11  H    0.110855
    12  C   -0.184164
    13  H    0.142892
    14  H    0.151774
    15  H    0.143617
    16  C    0.345087
    17  C   -0.296806
    18  N   -0.162433
    19  N   -0.167370
    20  C   -0.104298
    21  C   -0.052088
    22  C   -0.012149
    23  C   -0.110856
    24  H    0.119071
    25  C   -0.160419
    26  H    0.154765
    27  C    0.165934
    28  H    0.124453
    29  H    0.139174
    30  O   -0.348359
    31  C   -0.159700
    32  H    0.129717
    33  H    0.143675
    34  H    0.130105
    35  N   -0.484095
    36  C   -0.262270
    37  H    0.125243
    38  H    0.117423
    39  H    0.116768
    40  C   -0.250076
    41  H    0.120864
    42  H    0.115622
    43  H    0.120682
    44  C   -0.242045
    45  H    0.111491
    46  H    0.121684
    47  H    0.120180
 Sum of Mulliken charges =  -0.00000

 Dipole moment (field-independent basis, Debye):
    X=             -1.8421    Y=              2.0155    Z=              7.3367  Tot=              7.8283
 Quadrupole moment (field-independent basis, Debye-Ang):
   XX=           -125.7378   YY=           -144.0392   ZZ=           -137.2838
   XY=             -0.1048   XZ=             -4.0311   YZ=             -3.4703

 Normal termination of Gaussian 16 at Wed Dec 18 00:33:09 2024.
